    2    2    1    1
  0.2370191E+02  0.4062338E-09  0.4062338E-09  0.4062338E-09  0.5000000E-15
   1.0000000000000000E-004
  CAR 
 unknown system                          
     28     56     18

  0.1262379E-14  0.1262379E-14  0.1262379E-14  0.7513148E-03
      1        -20.200896   1.000000
      2        -20.200896   1.000000
      3        -20.200895   1.000000
      4        -20.167930   1.000000
      5        -20.167930   1.000000
      6        -19.981396   1.000000
      7        -19.981396   1.000000
      8        -19.981394   1.000000
      9        -19.971266   1.000000
     10        -19.971266   1.000000
     11         -7.876310   1.000000
     12          4.175500   1.000000
     13          4.552188   1.000000
     14          4.552203   1.000000
     15          4.552203   0.000000
     16          7.088829   0.000000
     17          7.088836   0.000000
     18          7.088836   0.000000

  0.9090909E-01  0.1252676E-14  0.1254993E-14  0.6010518E-02
      1        -20.205352   1.000000
      2        -20.205351   1.000000
      3        -20.199751   1.000000
      4        -20.162287   1.000000
      5        -20.162287   1.000000
      6        -19.988864   1.000000
      7        -19.988864   1.000000
      8        -19.983025   1.000000
      9        -19.964977   1.000000
     10        -19.964976   1.000000
     11         -7.779742   1.000000
     12          2.755965   1.000000
     13          4.369797   1.000000
     14          4.369809   1.000000
     15          5.331509  -0.000000
     16          7.334672   0.000000
     17          7.334679   0.000000
     18          7.502506   0.000000

  0.1818182E+00  0.1275596E-14  0.1274862E-14  0.6010518E-02
      1        -20.212627   1.000000
      2        -20.212626   1.000000
      3        -20.196627   1.000000
      4        -20.151035   1.000000
      5        -20.151035   1.000000
      6        -19.998920   1.000000
      7        -19.998920   1.000000
      8        -19.986840   1.000000
      9        -19.957125   1.000000
     10        -19.957124   1.000000
     11         -7.494692   1.000000
     12          1.081986   1.000000
     13          3.995695   1.000000
     14          3.995707   1.000000
     15          5.298310   0.000000
     16          7.828829   0.000000
     17          7.828837   0.000000
     18          8.769289   0.000000

  0.2727273E+00  0.1262035E-14  0.1246160E-14  0.6010518E-02
      1        -20.218387   1.000000
      2        -20.218386   1.000000
      3        -20.192328   1.000000
      4        -20.140820   1.000000
      5        -20.140819   1.000000
      6        -20.006926   1.000000
      7        -20.006926   1.000000
      8        -19.991935   1.000000
      9        -19.951476   1.000000
     10        -19.951475   1.000000
     11         -7.040000   1.000000
     12         -0.487820   1.000000
     13          3.634555   1.000000
     14          3.634566   1.000000
     15          5.002256   0.000000
     16          8.195219   0.000000
     17          8.195228   0.000000
     18         10.330293   0.000000

  0.3636364E+00  0.1282284E-14  0.1272968E-14  0.6010518E-02
      1        -20.221656   1.000000
      2        -20.221654   1.000000
      3        -20.188128   1.000000
      4        -20.134214   1.000000
      5        -20.134213   1.000000
      6        -20.011617   1.000000
      7        -20.011616   1.000000
      8        -19.996671   1.000000
      9        -19.948130   1.000000
     10        -19.948129   1.000000
     11         -6.473007   1.000000
     12         -1.824285   1.000000
     13          3.370979   1.000000
     14          3.370989   1.000000
     15          4.753078   0.000000
     16          8.298896   0.000000
     17          8.298904   0.000000
     18         11.670012   0.000000

  0.4545455E+00  0.1287414E-14  0.1272021E-14  0.6010518E-02
      1        -20.223021   1.000000
      2        -20.223020   1.000000
      3        -20.185579   1.000000
      4        -20.131354   1.000000
      5        -20.131353   1.000000
      6        -20.013363   1.000000
      7        -20.013362   1.000000
      8        -19.999568   1.000000
      9        -19.946674   1.000000
     10        -19.946672   1.000000
     11         -5.981672   1.000000
     12         -2.706993   1.000000
     13          3.234502   1.000000
     14          3.234513   1.000000
     15          4.620231   0.000000
     16          8.283172   0.000000
     17          8.283179   0.000000
     18         11.682588   0.000000

  0.9090909E-01  0.9090909E-01  0.1263096E-14  0.4507889E-02
      1        -20.205443   1.000000
      2        -20.203865   1.000000
      3        -20.203864   1.000000
      4        -20.163952   1.000000
      5        -20.156135   1.000000
      6        -20.001384   1.000000
      7        -19.977556   1.000000
      8        -19.977555   1.000000
      9        -19.975185   1.000000
     10        -19.960644   1.000000
     11         -7.747282   1.000000
     12          2.669558   1.000000
     13          4.048683   1.000000
     14          4.048692   1.000000
     15          5.998603  -0.000000
     16          6.715939   0.000000
     17          7.756349   0.000000
     18          7.756355   0.000000

  0.1818182E+00  0.9090909E-01  0.1253098E-14  0.1803156E-01
      1        -20.213387   1.000000
      2        -20.208950   1.000000
      3        -20.200625   1.000000
      4        -20.156187   1.000000
      5        -20.144124   1.000000
      6        -20.014437   1.000000
      7        -19.987138   1.000000
      8        -19.977590   1.000000
      9        -19.966200   1.000000
     10        -19.954650   1.000000
     11         -7.524004   1.000000
     12          1.421836   1.000000
     13          3.634913   1.000000
     14          3.673084   1.000000
     15          6.262164   0.000000
     16          6.838985   0.000000
     17          8.353652   0.000000
     18          8.650740   0.000000

  0.2727273E+00  0.9090909E-01  0.1272968E-14  0.1803156E-01
      1        -20.221386   1.000000
      2        -20.215145   1.000000
      3        -20.194060   1.000000
      4        -20.145769   1.000000
      5        -20.132589   1.000000
      6        -20.024284   1.000000
      7        -19.997284   1.000000
      8        -19.983827   1.000000
      9        -19.957858   1.000000
     10        -19.947662   1.000000
     11         -7.122595   1.000000
     12         -0.065288   1.000000
     13          3.220224   1.000000
     14          3.288078   1.000000
     15          5.994949   0.000000
     16          7.443791   0.000000
     17          8.786400   0.000000
     18          9.636798   0.000000

  0.3636364E+00  0.9090909E-01  0.1272021E-14  0.1803156E-01
      1        -20.226892   1.000000
      2        -20.219837   1.000000
      3        -20.186318   1.000000
      4        -20.136699   1.000000
      5        -20.125576   1.000000
      6        -20.028430   1.000000
      7        -20.005964   1.000000
      8        -19.992594   1.000000
      9        -19.951563   1.000000
     10        -19.942344   1.000000
     11         -6.581814   1.000000
     12         -1.440077   1.000000
     13          2.804731   1.000000
     14          3.071406   1.000000
     15          5.707088   0.000000
     16          7.872408   0.000000
     17          8.872670   0.000000
     18         10.563201   0.000000

  0.4545455E+00  0.9090909E-01  0.1271074E-14  0.1803156E-01
      1        -20.229596   1.000000
      2        -20.223111   1.000000
      3        -20.179774   1.000000
      4        -20.129893   1.000000
      5        -20.124565   1.000000
      6        -20.025853   1.000000
      7        -20.013200   1.000000
      8        -20.001034   1.000000
      9        -19.946927   1.000000
     10        -19.939747   1.000000
     11         -6.027003   1.000000
     12         -2.490026   1.000000
     13          2.503035   1.000000
     14          3.005799   1.000000
     15          5.510409   0.000000
     16          8.037349   0.000000
     17          8.741460   0.000000
     18         11.582715   0.000000

 -0.4545455E+00  0.9090909E-01  0.1280545E-14  0.1803156E-01
      1        -20.229515   1.000000
      2        -20.225116   1.000000
      3        -20.176873   1.000000
      4        -20.128017   1.000000
      5        -20.125423   1.000000
      6        -20.019152   1.000000
      7        -20.018007   1.000000
      8        -20.006752   1.000000
      9        -19.943941   1.000000
     10        -19.940313   1.000000
     11         -5.820021   1.000000
     12         -2.821708   1.000000
     13          2.344905   1.000000
     14          3.092409   1.000000
     15          5.437935   0.000000
     16          8.163140   0.000000
     17          8.575655   0.000000
     18         11.973559   0.000000

 -0.3636364E+00  0.9090909E-01  0.1279598E-14  0.1803156E-01
      1        -20.226872   1.000000
      2        -20.225583   1.000000
      3        -20.179107   1.000000
      4        -20.133520   1.000000
      5        -20.124442   1.000000
      6        -20.022268   1.000000
      7        -20.011429   1.000000
      8        -20.004301   1.000000
      9        -19.944121   1.000000
     10        -19.942882   1.000000
     11         -6.199717   1.000000
     12         -2.190285   1.000000
     13          2.347315   1.000000
     14          3.319171   1.000000
     15          5.495395   0.000000
     16          8.331564   0.000000
     17          8.424471   0.000000
     18         11.638198   0.000000

 -0.2727273E+00  0.9090909E-01  0.1278651E-14  0.1803156E-01
      1        -20.223880   1.000000
      2        -20.221755   1.000000
      3        -20.185554   1.000000
      4        -20.140282   1.000000
      5        -20.128828   1.000000
      6        -20.020397   1.000000
      7        -20.009029   1.000000
      8        -19.992481   1.000000
      9        -19.950977   1.000000
     10        -19.944284   1.000000
     11         -6.774868   1.000000
     12         -1.003370   1.000000
     13          2.525239   1.000000
     14          3.658625   1.000000
     15          5.666663   0.000000
     16          8.200265   0.000000
     17          8.415689   0.000000
     18         10.461923   0.000000

 -0.1818182E+00  0.9090909E-01  0.1277704E-14  0.1803156E-01
      1        -20.219403   1.000000
      2        -20.214468   1.000000
      3        -20.193288   1.000000
      4        -20.148767   1.000000
      5        -20.138891   1.000000
      6        -20.012861   1.000000
      7        -20.003505   1.000000
      8        -19.980715   1.000000
      9        -19.960623   1.000000
     10        -19.948536   1.000000
     11         -7.276062   1.000000
     12          0.413690   1.000000
     13          2.902128   1.000000
     14          4.052210   1.000000
     15          5.879876   0.000000
     16          7.796464   0.000000
     17          8.049967   0.000000
     18          9.438478   0.000000

 -0.9090909E-01  0.9090909E-01  0.1276756E-14  0.9015778E-02
      1        -20.212419   1.000000
      2        -20.206866   1.000000
      3        -20.199176   1.000000
      4        -20.157755   1.000000
      5        -20.151683   1.000000
      6        -20.001513   1.000000
      7        -19.995189   1.000000
      8        -19.973171   1.000000
      9        -19.970612   1.000000
     10        -19.955553   1.000000
     11         -7.619941   1.000000
     12          1.809028   1.000000
     13          3.543438   1.000000
     14          4.364117   1.000000
     15          5.835920   0.000000
     16          7.379652   0.000000
     17          7.464476   0.000000
     18          8.482841   0.000000

  0.1818182E+00  0.1818182E+00  0.1263813E-14  0.4507889E-02
      1        -20.211074   1.000000
      2        -20.211073   1.000000
      3        -20.208428   1.000000
      4        -20.151839   1.000000
      5        -20.130581   1.000000
      6        -20.032353   1.000000
      7        -19.986292   1.000000
      8        -19.966824   1.000000
      9        -19.966823   1.000000
     10        -19.956333   1.000000
     11         -7.362446   1.000000
     12          1.022020   1.000000
     13          3.200273   1.000000
     14          3.200281   1.000000
     15          6.044768   0.000000
     16          7.155424   0.000000
     17          9.086400   0.000000
     18          9.086407   0.000000

  0.2727273E+00  0.1818182E+00  0.1251204E-14  0.1803156E-01
      1        -20.220944   1.000000
      2        -20.216096   1.000000
      3        -20.200266   1.000000
      4        -20.142281   1.000000
      5        -20.116712   1.000000
      6        -20.047091   1.000000
      7        -19.996320   1.000000
      8        -19.971059   1.000000
      9        -19.958711   1.000000
     10        -19.949417   1.000000
     11         -7.017766   1.000000
     12         -0.016650   1.000000
     13          2.696891   1.000000
     14          2.842356   1.000000
     15          6.098664   0.000000
     16          7.245444   0.000000
     17          9.520791   0.000000
     18          9.696770   0.000000

  0.3636364E+00  0.1818182E+00  0.1312707E-14  0.1803156E-01
      1        -20.230349   1.000000
      2        -20.221094   1.000000
      3        -20.187749   1.000000
      4        -20.131662   1.000000
      5        -20.107212   1.000000
      6        -20.055440   1.000000
      7        -20.007720   1.000000
      8        -19.984364   1.000000
      9        -19.950868   1.000000
     10        -19.939383   1.000000
     11         -6.515715   1.000000
     12         -1.217287   1.000000
     13          2.105268   1.000000
     14          2.625675   1.000000
     15          6.231165   0.000000
     16          7.686991   0.000000
     17          9.465099   0.000000
     18          9.908766   0.000000

  0.4545455E+00  0.1818182E+00  0.1270127E-14  0.1803156E-01
      1        -20.236882   1.000000
      2        -20.225088   1.000000
      3        -20.174724   1.000000
      4        -20.121789   1.000000
      5        -20.105863   1.000000
      6        -20.054361   1.000000
      7        -20.018806   1.000000
      8        -19.998566   1.000000
      9        -19.944603   1.000000
     10        -19.932183   1.000000
     11         -5.937400   1.000000
     12         -2.288136   1.000000
     13          1.614704   1.000000
     14          2.573988   1.000000
     15          6.146784   0.000000
     16          8.274184   0.000000
     17          9.769206   0.000000
     18          9.948696   0.000000

 -0.4545455E+00  0.1818182E+00  0.1279598E-14  0.1803156E-01
      1        -20.239573   1.000000
      2        -20.227970   1.000000
      3        -20.165419   1.000000
      4        -20.113773   1.000000
      5        -20.112558   1.000000
      6        -20.044374   1.000000
      7        -20.028837   1.000000
      8        -20.009371   1.000000
      9        -19.940192   1.000000
     10        -19.929431   1.000000
     11         -5.557151   1.000000
     12         -2.869808   1.000000
     13          1.298871   1.000000
     14          2.689842   1.000000
     15          6.117687   0.000000
     16          8.449675   0.000000
     17          9.501793   0.000000
     18         11.237922   0.000000

 -0.3636364E+00  0.1818182E+00  0.1278651E-14  0.1803156E-01
      1        -20.237950   1.000000
      2        -20.229449   1.000000
      3        -20.163210   1.000000
      4        -20.123867   1.000000
      5        -20.109839   1.000000
      6        -20.035438   1.000000
      7        -20.028423   1.000000
      8        -20.014139   1.000000
      9        -19.938063   1.000000
     10        -19.931910   1.000000
     11         -5.782015   1.000000
     12         -2.532779   1.000000
     13          1.194684   1.000000
     14          2.958965   1.000000
     15          6.199251   0.000000
     16          8.591798   0.000000
     17          9.199483   0.000000
     18         11.513241   0.000000

 -0.2727273E+00  0.1818182E+00  0.1277704E-14  0.1803156E-01
      1        -20.232186   1.000000
      2        -20.228792   1.000000
      3        -20.169965   1.000000
      4        -20.134518   1.000000
      5        -20.113519   1.000000
      6        -20.034579   1.000000
      7        -20.016204   1.000000
      8        -20.006996   1.000000
      9        -19.939605   1.000000
     10        -19.938647   1.000000
     11         -6.343329   1.000000
     12         -1.580105   1.000000
     13          1.354163   1.000000
     14          3.344525   1.000000
     15          6.345968   0.000000
     16          8.760941   0.000000
     17          8.796331   0.000000
     18         10.155102   0.000000

 -0.1818182E+00  0.1818182E+00  0.1276756E-14  0.9015778E-02
      1        -20.225309   1.000000
      2        -20.223247   1.000000
      3        -20.182450   1.000000
      4        -20.142304   1.000000
      5        -20.124665   1.000000
      6        -20.025872   1.000000
      7        -20.011127   1.000000
      8        -19.989582   1.000000
      9        -19.951235   1.000000
     10        -19.942150   1.000000
     11         -6.880241   1.000000
     12         -0.496958   1.000000
     13          1.886401   1.000000
     14          3.765310   1.000000
     15          6.372896   0.000000
     16          8.241872   0.000000
     17          8.431249   0.000000
     18          9.587410   0.000000

  0.2727273E+00  0.2727273E+00  0.1264530E-14  0.4507889E-02
      1        -20.219804   1.000000
      2        -20.219803   1.000000
      3        -20.203760   1.000000
      4        -20.132870   1.000000
      5        -20.099323   1.000000
      6        -20.067633   1.000000
      7        -20.004092   1.000000
      8        -19.962337   1.000000
      9        -19.953556   1.000000
     10        -19.953555   1.000000
     11         -6.728987   1.000000
     12         -0.573917   1.000000
     13          2.460607   1.000000
     14          2.460614   1.000000
     15          5.496534   0.000000
     16          7.034200   0.000000
     17         10.600395   0.000000
     18         10.600403   0.000000

  0.3636364E+00  0.2727273E+00  0.1249310E-14  0.1803156E-01
      1        -20.228310   1.000000
      2        -20.224012   1.000000
      3        -20.192075   1.000000
      4        -20.121373   1.000000
      5        -20.085634   1.000000
      6        -20.081979   1.000000
      7        -20.015621   1.000000
      8        -19.976527   1.000000
      9        -19.946869   1.000000
     10        -19.941840   1.000000
     11         -6.272510   1.000000
     12         -1.454373   1.000000
     13          1.937709   1.000000
     14          2.217816   1.000000
     15          5.648760   0.000000
     16          6.893378   0.000000
     17         10.617620   0.000000
     18         11.121980   0.000000

  0.4545455E+00  0.2727273E+00  0.1269180E-14  0.1803156E-01
      1        -20.237932   1.000000
      2        -20.227667   1.000000
      3        -20.174701   1.000000
      4        -20.109594   1.000000
      5        -20.089727   1.000000
      6        -20.076676   1.000000
      7        -20.028407   1.000000
      8        -19.995228   1.000000
      9        -19.941027   1.000000
     10        -19.930728   1.000000
     11         -5.699039   1.000000
     12         -2.368423   1.000000
     13          1.256145   1.000000
     14          2.144075   1.000000
     15          5.848268   0.000000
     16          7.621341   0.000000
     17         10.309246   0.000000
     18         11.112858   0.000000

 -0.4545455E+00  0.2727273E+00  0.1278651E-14  0.1803156E-01
      1        -20.244353   1.000000
      2        -20.230454   1.000000
      3        -20.160335   1.000000
      4        -20.099047   1.000000
      5        -20.088909   1.000000
      6        -20.075323   1.000000
      7        -20.040996   1.000000
      8        -20.010250   1.000000
      9        -19.936862   1.000000
     10        -19.923880   1.000000
     11         -5.197155   1.000000
     12         -3.038528   1.000000
     13          0.727716   1.000000
     14          2.245935   1.000000
     15          5.928024   0.000000
     16          8.995119   0.000000
     17         10.156781   0.000000
     18         10.804506   0.000000

 -0.3636364E+00  0.2727273E+00  0.1277704E-14  0.1803156E-01
      1        -20.245703   1.000000
      2        -20.232033   1.000000
      3        -20.154307   1.000000
      4        -20.101338   1.000000
      5        -20.093389   1.000000
      6        -20.060345   1.000000
      7        -20.049294   1.000000
      8        -20.016455   1.000000
      9        -19.934925   1.000000
     10        -19.922872   1.000000
     11         -5.256324   1.000000
     12         -2.959427   1.000000
     13          0.490231   1.000000
     14          2.511680   1.000000
     15          6.105193   0.000000
     16          9.768745   0.000000
     17         10.336364   0.000000
     18         10.894369   0.000000

 -0.2727273E+00  0.2727273E+00  0.1276756E-14  0.9015778E-02
      1        -20.241297   1.000000
      2        -20.231543   1.000000
      3        -20.157158   1.000000
      4        -20.121205   1.000000
      5        -20.099292   1.000000
      6        -20.046284   1.000000
      7        -20.035482   1.000000
      8        -20.015942   1.000000
      9        -19.935386   1.000000
     10        -19.928451   1.000000
     11         -5.788605   1.000000
     12         -2.282429   1.000000
     13          0.657885   1.000000
     14          2.905378   1.000000
     15          6.343081   0.000000
     16          9.638670   0.000000
     17          9.899553   0.000000
     18          9.927767   0.000000

  0.3636364E+00  0.3636364E+00  0.1265247E-14  0.4507889E-02
      1        -20.227203   1.000000
      2        -20.227203   1.000000
      3        -20.190126   1.000000
      4        -20.108753   1.000000
      5        -20.104079   1.000000
      6        -20.065626   1.000000
      7        -20.027076   1.000000
      8        -19.978217   1.000000
      9        -19.941904   1.000000
     10        -19.941903   1.000000
     11         -5.860240   1.000000
     12         -2.095394   1.000000
     13          1.938741   1.000000
     14          1.938748   1.000000
     15          5.208522   0.000000
     16          6.243124   0.000000
     17         12.143709   0.000000
     18         12.143718   0.000000

  0.4545455E+00  0.3636364E+00  0.1247416E-14  0.1803156E-01
      1        -20.233820   1.000000
      2        -20.229834   1.000000
      3        -20.174755   1.000000
      4        -20.117222   1.000000
      5        -20.095708   1.000000
      6        -20.052438   1.000000
      7        -20.040343   1.000000
      8        -19.994543   1.000000
      9        -19.937597   1.000000
     10        -19.933840   1.000000
     11         -5.308242   1.000000
     12         -2.849275   1.000000
     13          1.469665   1.000000
     14          1.826880   1.000000
     15          5.439033   0.000000
     16          6.244401   0.000000
     17         12.112101   0.000000
     18         12.508755   0.000000

 -0.4545455E+00  0.3636364E+00  0.1277704E-14  0.1803156E-01
      1        -20.242260   1.000000
      2        -20.231718   1.000000
      3        -20.157338   1.000000
      4        -20.115787   1.000000
      5        -20.083359   1.000000
      6        -20.054063   1.000000
      7        -20.052114   1.000000
      8        -20.012510   1.000000
      9        -19.934727   1.000000
     10        -19.925080   1.000000
     11         -4.735562   1.000000
     12         -3.496762   1.000000
     13          0.810238   1.000000
     14          1.893879   1.000000
     15          5.602612   0.000000
     16          7.340606   0.000000
     17         11.768495   0.000000
     18         12.222541   0.000000

 -0.3636364E+00  0.3636364E+00  0.1276756E-14  0.9015778E-02
      1        -20.247070   1.000000
      2        -20.232564   1.000000
      3        -20.152070   1.000000
      4        -20.093021   1.000000
      5        -20.079777   1.000000
      6        -20.072606   1.000000
      7        -20.060095   1.000000
      8        -20.017606   1.000000
      9        -19.933757   1.000000
     10        -19.920664   1.000000
     11         -4.727153   1.000000
     12         -3.485451   1.000000
     13          0.397210   1.000000
     14          2.132331   1.000000
     15          5.806846   0.000000
     16          8.986641   0.000000
     17         11.268807   0.000000
     18         11.468346   0.000000

  0.4545455E+00  0.4545455E+00  0.1265965E-14  0.4507889E-02
      1        -20.231239   1.000000
      2        -20.231238   1.000000
      3        -20.167808   1.000000
      4        -20.138417   1.000000
      5        -20.081631   1.000000
      6        -20.053649   1.000000
      7        -20.032260   1.000000
      8        -20.002272   1.000000
      9        -19.935161   1.000000
     10        -19.935160   1.000000
     11         -4.777210   1.000000
     12         -3.509735   1.000000
     13          1.671108   1.000000
     14          1.671115   1.000000
     15          5.230443   0.000000
     16          5.581946   0.000000
     17         13.448529   0.000000
     18         13.448540   0.000000

 -0.4545455E+00  0.4545455E+00  0.1276756E-14  0.9015778E-02
      1        -20.235756   1.000000
      2        -20.231998   1.000000
      3        -20.153543   1.000000
      4        -20.144465   1.000000
      5        -20.068910   1.000000
      6        -20.066704   1.000000
      7        -20.025328   1.000000
      8        -20.016843   1.000000
      9        -19.934124   1.000000
     10        -19.930643   1.000000
     11         -4.215522   1.000000
     12         -4.088853   1.000000
     13          1.312302   1.000000
     14          1.694280   1.000000
     15          5.417379   0.000000
     16          5.949027   0.000000
     17         13.155208   0.000000
     18         13.309562   0.000000

  0.2727273E+00  0.1818182E+00  0.9090909E-01  0.1803156E-01
      1        -20.219426   1.000000
      2        -20.214654   1.000000
      3        -20.196398   1.000000
      4        -20.148678   1.000000
      5        -20.131071   1.000000
      6        -20.028528   1.000000
      7        -19.994826   1.000000
      8        -19.975986   1.000000
      9        -19.962283   1.000000
     10        -19.948875   1.000000
     11         -7.240729   1.000000
     12          0.487785   1.000000
     13          2.703203   1.000000
     14          3.597304   1.000000
     15          6.726294   0.000000
     16          6.788438   0.000000
     17          8.847706   0.000000
     18          9.274073   0.000000

  0.3636364E+00  0.1818182E+00  0.9090909E-01  0.3606311E-01
      1        -20.226401   1.000000
      2        -20.221944   1.000000
      3        -20.185971   1.000000
      4        -20.139438   1.000000
      5        -20.119306   1.000000
      6        -20.038600   1.000000
      7        -20.003840   1.000000
      8        -19.988301   1.000000
      9        -19.951313   1.000000
     10        -19.942343   1.000000
     11         -6.788091   1.000000
     12         -0.717832   1.000000
     13          2.076782   1.000000
     14          3.285229   1.000000
     15          6.567849   0.000000
     16          7.463918   0.000000
     17          9.254615   0.000000
     18          9.560938   0.000000

  0.4545455E+00  0.1818182E+00  0.9090909E-01  0.3606311E-01
      1        -20.232778   1.000000
      2        -20.226110   1.000000
      3        -20.174842   1.000000
      4        -20.130701   1.000000
      5        -20.113130   1.000000
      6        -20.041791   1.000000
      7        -20.011742   1.000000
      8        -20.002729   1.000000
      9        -19.943870   1.000000
     10        -19.936683   1.000000
     11         -6.220612   1.000000
     12         -1.897802   1.000000
     13          1.732050   1.000000
     14          2.962726   1.000000
     15          6.365286   0.000000
     16          7.907142   0.000000
     17          9.318878   0.000000
     18         10.319077   0.000000

 -0.4545455E+00  0.1818182E+00  0.9090909E-01  0.3606311E-01
      1        -20.236400   1.000000
      2        -20.227826   1.000000
      3        -20.167692   1.000000
      4        -20.122944   1.000000
      5        -20.113917   1.000000
      6        -20.037536   1.000000
      7        -20.021969   1.000000
      8        -20.010316   1.000000
      9        -19.940790   1.000000
     10        -19.932910   1.000000
     11         -5.721675   1.000000
     12         -2.728209   1.000000
     13          1.581134   1.000000
     14          2.772506   1.000000
     15          6.247925   0.000000
     16          7.967070   0.000000
     17          9.339667   0.000000
     18         11.505722   0.000000

  0.3636364E+00  0.2727273E+00  0.9090909E-01  0.1803156E-01
      1        -20.225691   1.000000
      2        -20.223824   1.000000
      3        -20.191390   1.000000
      4        -20.132278   1.000000
      5        -20.102582   1.000000
      6        -20.062074   1.000000
      7        -20.006175   1.000000
      8        -19.979361   1.000000
      9        -19.949067   1.000000
     10        -19.943952   1.000000
     11         -6.618663   1.000000
     12         -0.868771   1.000000
     13          1.993809   1.000000
     14          2.643504   1.000000
     15          6.244390   0.000000
     16          7.242198   0.000000