       N       E                     dE             d eps       ncg     rms          rms(c)
DAV:   1    -0.903507964533E+01   -0.90351E+01   -0.40039E-05  2502   0.149E-01
DAV:   2    -0.903508023286E+01   -0.58753E-06   -0.58755E-06  2030   0.220E-02
   1 F= -.90350802E+01 E0= -.90350802E+01  d E =0.000000E+00
