 vasp.6.3.2 27Jun22 (build Nov 28 2025 11:56:12) complex                         
 executed on             LinuxGNU date 2026.01.18  23:29:28
 running    2 mpi-ranks, with    1 threads/rank
 distrk:  each k-point on    2 cores,    1 groups
 distr:  one band on NCORE=   1 cores,    2 groups


--------------------------------------------------------------------------------------------------------


 INCAR:
   ISTART = 1            (Read existing wavefunction, if there)
   ISPIN = 1            (Non-Spin polarised DFT)
   ICHARG = 11           (Non-self-consistent: GGA/LDA band structures)
   LREAL = .FALSE.       (Projection operators: automatic)
   ENCUT = 450          (Cut-off energy for plane wave basis set, in eV)
   PREC = Accurate            (Precision level: Normal or Accurate, set Accurate when perform structure lattice relaxation calculation)
   LWAVE = .TRUE.        (Write WAVECAR or not)
   LCHARG = .TRUE.        (Write CHGCAR or not)
   ADDGRID = .TRUE.        (Increase grid, helps GGA convergence)
   ISMEAR = -5            (gaussian smearing method)
   SIGMA = 0.05         (please check the width of the smearing)
   NELM = 60           (Max electronic SCF steps)
   EDIFF = 1E-06        (SCF energy convergence, in eV)
   LORBIT = 10           (PAW radii for projected DOS)
   NEDOS = 1000         (DOSCAR points)

 POTCAR:    PAW_PBE Ge_d 03Jul2007                
 POTCAR:    PAW_PBE Ge_d 03Jul2007                
   VRHFIN =Ge: 3d4s4p                                                                               
   LEXCH  = PE                                                                                      
   EATOM  =  2596.2402 eV,  190.8183 Ry                                                             
                                                                                                    
   TITEL  = PAW_PBE Ge_d 03Jul2007                                                                  
   LULTRA =        F    use ultrasoft PP ?                                                          
   IUNSCR =        1    unscreen: 0-lin 1-nonlin 2-no                                               
   RPACOR =    2.000    partial core radius                                                         
   POMASS =   72.610; ZVAL   =   14.000    mass and valenz                                          
   RCORE  =    2.300    outmost cutoff radius                                                       
   RWIGS  =    2.300; RWIGS  =    1.217    wigner-seitz radius (au A)                               
   ENMAX  =  310.294; ENMIN  =  232.720 eV                                                          
   ICORE  =        3    local potential                                                             
   LCOR   =        T    correct aug charges                                                         
   LPAW   =        T    paw PP                                                                      
   EAUG   =  531.356                                                                                
   DEXC   =    0.000                                                                                
   RMAX   =    2.342    core radius for proj-oper                                                   
   RAUG   =    1.300    factor for augmentation sphere                                              
   RDEP   =    2.318    radius for radial grids                                                     
   RDEPT  =    1.783    core radius for aug-charge                                                  
                                                                                                    
   Atomic configuration                                                                             
    9 entries                                                                                       
     n  l   j            E        occ.                                                              
     1  0  0.50    -10959.8463   2.0000                                                             
     2  0  0.50     -1371.6056   2.0000                                                             
     2  1  1.50     -1198.4791   6.0000                                                             
     3  0  0.50      -168.4733   2.0000                                                             
     3  1  1.50      -115.6019   6.0000                                                             
     3  2  2.50       -29.3106  10.0000                                                             
     4  0  0.50       -11.7309   2.0000                                                             
     4  1  0.50        -3.8952   2.0000                                                             
     4  3  2.50        -4.0817   0.0000                                                             
   Description                                                                                      
     l       E           TYP  RCUT    TYP  RCUT                                                     
     2    -29.3105938     23  2.200                                                                 
     2    -13.6058260     23  2.200                                                                 
     0    -11.7309493     23  2.300                                                                 
     0     -7.4578696     23  2.300                                                                 
     1     -3.8952261     23  2.300                                                                 
     1      6.1178114     23  2.300                                                                 
     3     -1.3605826     23  2.300                                                                 
  local pseudopotential read in
  partial core-charges read in
  partial kinetic energy density read in
  atomic valenz-charges read in
  non local Contribution for L=           2  read in
    real space projection operators read in
  non local Contribution for L=           2  read in
    real space projection operators read in
  non local Contribution for L=           0  read in
    real space projection operators read in
  non local Contribution for L=           0  read in
    real space projection operators read in
  non local Contribution for L=           1  read in
    real space projection operators read in
  non local Contribution for L=           1  read in
    real space projection operators read in
    PAW grid and wavefunctions read in

   number of l-projection  operators is LMAX  =           6
   number of lm-projection operators is LMMAX =          18

  PAW_PBE Ge_d 03Jul2007                :
 energy of atom  1       EATOM=-2596.2402
 kinetic energy error for atom=    0.0077 (will be added to EATOM!!)


 POSCAR: cubic diamond Ge
  positions in direct lattice
  velocities in cartesian coordinates
 exchange correlation table for  LEXCH =        8
   RHO(1)=    0.500       N(1)  =     2000
   RHO(2)=  100.500       N(2)  =     4000



--------------------------------------------------------------------------------------------------------


 ion  position               nearest neighbor table
   1  0.875  0.875  0.875-   2 2.37   2 2.37   2 2.37   2 2.37
   2  0.125  0.125  0.125-   1 2.37   1 2.37   1 2.37   1 2.37

  LATTYP: Found a face centered cubic cell.
 ALAT       =     5.4686207326
  
  Lattice vectors:
  
 A1 = (   0.0000000000,   2.7343103663,   2.7343103663)
 A2 = (   2.7343103663,   0.0000000000,   2.7343103663)
 A3 = (   2.7343103663,   2.7343103663,   0.0000000000)


Analysis of symmetry for initial positions (statically):
=====================================================================
 Subroutine PRICEL returns:
 Original cell was already a primitive cell.
 

 Routine SETGRP: Setting up the symmetry group for a 
 face centered cubic supercell.


 Subroutine GETGRP returns: Found 48 space group operations
 (whereof 12 operations were pure point group operations)
 out of a pool of 48 trial point group operations.


The static configuration has the point symmetry D_3d.
 The point group associated with its full space group is O_h .


Analysis of symmetry for dynamics (positions and initial velocities):
=====================================================================
 Subroutine PRICEL returns:
 Original cell was already a primitive cell.
 

 Routine SETGRP: Setting up the symmetry group for a 
 face centered cubic supercell.


 Subroutine GETGRP returns: Found 48 space group operations
 (whereof 12 operations were pure point group operations)
 out of a pool of 48 trial point group operations.


The dynamic configuration has the point symmetry D_3d.
 The point group associated with its full space group is O_h .


 Subroutine INISYM returns: Found 48 space group operations
 (whereof 12 operations are pure point group operations),
 and found     1 'primitive' translations


----------------------------------------------------------------------------------------

                                     Primitive cell                                     

  volume of cell :      40.8859

  direct lattice vectors                    reciprocal lattice vectors
     0.000000000  2.734310366  2.734310366    -0.182861465  0.182861465  0.182861465
     2.734310366  0.000000000  2.734310366     0.182861465 -0.182861465  0.182861465
     2.734310366  2.734310366  0.000000000     0.182861465  0.182861465 -0.182861465

  length of vectors
     3.866898804  3.866898804  3.866898804     0.316725349  0.316725349  0.316725349

  position of ions in fractional coordinates (direct lattice)
     0.875000000  0.875000000  0.875000000
     0.125000000  0.125000000  0.125000000

  ion indices of the primitive-cell ions
   primitive index   ion index
                 1           1
                 2           2

----------------------------------------------------------------------------------------



 KPOINTS: K-Spacing Value to Generate K-Mesh: 0.03

Automatic generation of k-mesh.
 Grid dimensions read from file:
 generate k-points for:   11   11   11

 Generating k-lattice:

  Cartesian coordinates                     Fractional coordinates (reciprocal lattice)
    -0.016623770  0.016623770  0.016623770     0.090909091  0.000000000 -0.000000000
     0.016623770 -0.016623770  0.016623770     0.000000000  0.090909091  0.000000000
     0.016623770  0.016623770 -0.016623770    -0.000000000 -0.000000000  0.090909091

  Length of vectors
     0.028793214  0.028793214  0.028793214

  Shift w.r.t. Gamma in fractional coordinates (k-lattice)
     0.000000000  0.000000000  0.000000000

 TETIRR: Found    201 inequivalent tetrahedra from     7986
 
 Subroutine IBZKPT returns following result:
 ===========================================
 
 Found     56 irreducible k-points:
 
 Following reciprocal coordinates:
            Coordinates               Weight
  0.000000  0.000000  0.000000      1.000000
  0.090909  0.000000  0.000000      8.000000
  0.181818  0.000000  0.000000      8.000000
  0.272727  0.000000  0.000000      8.000000
  0.363636  0.000000  0.000000      8.000000
  0.454545  0.000000  0.000000      8.000000
  0.090909  0.090909  0.000000      6.000000
  0.181818  0.090909  0.000000     24.000000
  0.272727  0.090909  0.000000     24.000000
  0.363636  0.090909  0.000000     24.000000
  0.454545  0.090909  0.000000     24.000000
 -0.454545  0.090909  0.000000     24.000000
 -0.363636  0.090909  0.000000     24.000000
 -0.272727  0.090909  0.000000     24.000000
 -0.181818  0.090909  0.000000     24.000000
 -0.090909  0.090909  0.000000     12.000000
  0.181818  0.181818  0.000000      6.000000
  0.272727  0.181818  0.000000     24.000000
  0.363636  0.181818  0.000000     24.000000
  0.454545  0.181818  0.000000     24.000000
 -0.454545  0.181818  0.000000     24.000000
 -0.363636  0.181818  0.000000     24.000000
 -0.272727  0.181818  0.000000     24.000000
 -0.181818  0.181818  0.000000     12.000000
  0.272727  0.272727  0.000000      6.000000
  0.363636  0.272727  0.000000     24.000000
  0.454545  0.272727  0.000000     24.000000
 -0.454545  0.272727  0.000000     24.000000
 -0.363636  0.272727  0.000000     24.000000
 -0.272727  0.272727  0.000000     12.000000
  0.363636  0.363636  0.000000      6.000000
  0.454545  0.363636  0.000000     24.000000
 -0.454545  0.363636  0.000000     24.000000
 -0.363636  0.363636  0.000000     12.000000
  0.454545  0.454545  0.000000      6.000000
 -0.454545  0.454545  0.000000     12.000000
  0.272727  0.181818  0.090909     24.000000
  0.363636  0.181818  0.090909     48.000000
  0.454545  0.181818  0.090909     48.000000
 -0.454545  0.181818  0.090909     48.000000
  0.363636  0.272727  0.090909     24.000000
  0.454545  0.272727  0.090909     48.000000
 -0.454545  0.272727  0.090909     48.000000
 -0.363636  0.272727  0.090909     48.000000
 -0.272727  0.272727  0.090909     48.000000
 -0.181818  0.272727  0.090909     24.000000
  0.454545  0.363636  0.090909     24.000000
 -0.454545  0.363636  0.090909     48.000000
 -0.363636  0.363636  0.090909     48.000000
 -0.272727  0.363636  0.090909     24.000000
 -0.454545  0.454545  0.090909     24.000000
 -0.363636  0.454545  0.090909     24.000000
 -0.454545  0.363636  0.181818     24.000000
 -0.363636  0.363636  0.181818     48.000000
 -0.363636  0.454545  0.181818     24.000000
 -0.272727  0.454545  0.181818     24.000000
 
 Following cartesian coordinates:
            Coordinates               Weight
  0.000000  0.000000  0.000000      1.000000
 -0.094050  0.094050  0.094050      8.000000
 -0.188099  0.188099  0.188099      8.000000
 -0.282149  0.282149  0.282149      8.000000
 -0.376199  0.376199  0.376199      8.000000
 -0.470248  0.470248  0.470248      8.000000
  0.000000  0.000000  0.188099      6.000000
 -0.094050  0.094050  0.282149     24.000000
 -0.188099  0.188099  0.376199     24.000000
 -0.282149  0.282149  0.470248     24.000000
 -0.376199  0.376199  0.564298     24.000000
  0.564298 -0.564298 -0.376199     24.000000
  0.470248 -0.470248 -0.282149     24.000000
  0.376199 -0.376199 -0.188099     24.000000
  0.282149 -0.282149 -0.094050     24.000000
  0.188099 -0.188099  0.000000     12.000000
  0.000000  0.000000  0.376199      6.000000
 -0.094050  0.094050  0.470248     24.000000
 -0.188099  0.188099  0.564298     24.000000
 -0.282149  0.282149  0.658347     24.000000
  0.658347 -0.658347 -0.282149     24.000000
  0.564298 -0.564298 -0.188099     24.000000
  0.470248 -0.470248 -0.094050     24.000000
  0.376199 -0.376199  0.000000     12.000000
  0.000000  0.000000  0.564298      6.000000
 -0.094050  0.094050  0.658347     24.000000
 -0.188099  0.188099  0.752397     24.000000
  0.752397 -0.752397 -0.188099     24.000000
  0.658347 -0.658347 -0.094050     24.000000
  0.564298 -0.564298  0.000000     12.000000
  0.000000  0.000000  0.752397      6.000000
 -0.094050  0.094050  0.846447     24.000000
  0.846447 -0.846447 -0.094050     24.000000
  0.752397 -0.752397  0.000000     12.000000
  0.000000  0.000000  0.940496      6.000000
  0.940496 -0.940496  0.000000     12.000000
  0.000000  0.188099  0.376199     24.000000
 -0.094050  0.282149  0.470248     48.000000
 -0.188099  0.376199  0.564298     48.000000
  0.752397 -0.564298 -0.376199     48.000000
  0.000000  0.188099  0.564298     24.000000
 -0.094050  0.282149  0.658347     48.000000
  0.846447 -0.658347 -0.282149     48.000000
  0.752397 -0.564298 -0.188099     48.000000
  0.658347 -0.470248 -0.094050     48.000000
  0.564298 -0.376199  0.000000     24.000000
  0.000000  0.188099  0.752397     24.000000
  0.940496 -0.752397 -0.188099     48.000000
  0.846447 -0.658347 -0.094050     48.000000
  0.752397 -0.564298  0.000000     24.000000
  1.034546 -0.846447 -0.094050     24.000000
  0.940496 -0.752397 -0.000000     24.000000
  1.034546 -0.658347 -0.282149     24.000000
  0.940496 -0.564298 -0.188099     48.000000
  1.034546 -0.658347 -0.094050     24.000000
  0.940496 -0.564298  0.000000     24.000000
 


--------------------------------------------------------------------------------------------------------




 Dimension of arrays:
   k-points           NKPTS =     56   k-points in BZ     NKDIM =     56   number of bands    NBANDS=     18
   number of dos      NEDOS =   1000   number of ions     NIONS =      2
   non local maximal  LDIM  =      6   non local SUM 2l+1 LMDIM =     18
   total plane-waves  NPLWV =  21952
   max r-space proj   IRMAX =      1   max aug-charges    IRDMAX= 144637
   dimension x,y,z NGX =    28 NGY =   28 NGZ =   28
   dimension x,y,z NGXF=    56 NGYF=   56 NGZF=   56
   support grid    NGXF=   112 NGYF=  112 NGZF=  112
   ions per type =               2
   NGX,Y,Z   is equivalent  to a cutoff of  12.04, 12.04, 12.04 a.u.
   NGXF,Y,Z  is equivalent  to a cutoff of  24.08, 24.08, 24.08 a.u.

 SYSTEM =  unknown system                          
 POSCAR =  cubic diamond Ge                        

 Startparameter for this run:
   NWRITE =      2    write-flag & timer
   PREC   = accura    normal or accurate (medium, high low for compatibility)
   ISTART =      1    job   : 0-new  1-cont  2-samecut
   ICHARG =     11    charge: 1-file 2-atom 10-const
   ISPIN  =      1    spin polarized calculation?
   LNONCOLLINEAR =      F non collinear calculations
   LSORBIT =      F    spin-orbit coupling
   INIWAV =      1    electr: 0-lowe 1-rand  2-diag
   LASPH  =      F    aspherical Exc in radial PAW
 Electronic Relaxation 1
   ENCUT  =  450.0 eV  33.07 Ry    5.75 a.u.   6.69  6.69  6.69*2*pi/ulx,y,z
   ENINI  =  450.0     initial cutoff
   ENAUG  =  531.4 eV  augmentation charge cutoff
   NELM   =     60;   NELMIN=  2; NELMDL=  0     # of ELM steps 
   EDIFF  = 0.1E-05   stopping-criterion for ELM
   LREAL  =      F    real-space projection
   NLSPLINE    = F    spline interpolate recip. space projectors
   LCOMPAT=      F    compatible to vasp.4.4
   GGA_COMPAT  = T    GGA compatible to vasp.4.4-vasp.4.6
   LMAXPAW     = -100 max onsite density
   LMAXMIX     =    2 max onsite mixed and CHGCAR
   VOSKOWN=      0    Vosko Wilk Nusair interpolation
   ROPT   =    0.00000
 Ionic relaxation
   EDIFFG = 0.1E-04   stopping-criterion for IOM
   NSW    =      0    number of steps for IOM
   NBLOCK =      1;   KBLOCK =      1    inner block; outer block 
   IBRION =     -1    ionic relax: 0-MD 1-quasi-New 2-CG
   NFREE  =      0    steps in history (QN), initial steepest desc. (CG)
   ISIF   =      2    stress and relaxation
   IWAVPR =     10    prediction:  0-non 1-charg 2-wave 3-comb
   ISYM   =      2    0-nonsym 1-usesym 2-fastsym
   LCORR  =      T    Harris-Foulkes like correction to forces

   POTIM  = 0.5000    time-step for ionic-motion
   TEIN   =    0.0    initial temperature
   TEBEG  =    0.0;   TEEND  =   0.0 temperature during run
   SMASS  =  -3.00    Nose mass-parameter (am)
   estimated Nose-frequenzy (Omega)   =  0.10E-29 period in steps = 0.13E+47 mass=  -0.342E-27a.u.
   SCALEE = 1.0000    scale energy and forces
   NPACO  =    256;   APACO  = 10.0  distance and # of slots for P.C.
   PSTRESS=    0.0 pullay stress

  Mass of Ions in am
   POMASS =  72.61
  Ionic Valenz
   ZVAL   =  14.00
  Atomic Wigner-Seitz radii
   RWIGS  =  -1.00
  virtual crystal weights 
   VCA    =   1.00
   NELECT =      28.0000    total number of electrons
   NUPDOWN=      -1.0000    fix difference up-down

 DOS related values:
   EMIN   =  10.00;   EMAX   =-10.00  energy-range for DOS
   EFERMI =   0.00
   ISMEAR =    -5;   SIGMA  =   0.05  broadening in eV -4-tet -1-fermi 0-gaus

 Electronic relaxation 2 (details)
   IALGO  =     38    algorithm
   LDIAG  =      T    sub-space diagonalisation (order eigenvalues)
   LSUBROT=      F    optimize rotation matrix (better conditioning)
   TURBO    =      0    0=normal 1=particle mesh
   IRESTART =      0    0=no restart 2=restart with 2 vectors
   NREBOOT  =      0    no. of reboots
   NMIN     =      0    reboot dimension
   EREF     =   0.00    reference energy to select bands
   IMIX   =      4    mixing-type and parameters
     AMIX     =   0.40;   BMIX     =  1.00
     AMIX_MAG =   1.60;   BMIX_MAG =  1.00
     AMIN     =   0.10
     WC   =   100.;   INIMIX=   1;  MIXPRE=   1;  MAXMIX= -45

 Intra band minimization:
   WEIMIN = 0.0000     energy-eigenvalue tresh-hold
   EBREAK =  0.14E-07  absolut break condition
   DEPER  =   0.30     relativ break condition  

   TIME   =   0.40     timestep for ELM

  volume/ion in A,a.u.               =      20.44       137.96
  Fermi-wavevector in a.u.,A,eV,Ry     =   1.443011  2.726896 28.331157  2.082281
  Thomas-Fermi vector in A             =   2.561467

 Write flags
   LWAVE        =      T    write WAVECAR
   LDOWNSAMPLE  =      F    k-point downsampling of WAVECAR
   LCHARG       =      T    write CHGCAR
   LVTOT        =      F    write LOCPOT, total local potential
   LVHAR        =      F    write LOCPOT, Hartree potential only
   LELF         =      F    write electronic localiz. function (ELF)
   LORBIT       =     10    0 simple, 1 ext, 2 COOP (PROOUT), +10 PAW based schemes


 Dipole corrections
   LMONO  =      F    monopole corrections only (constant potential shift)
   LDIPOL =      F    correct potential (dipole corrections)
   IDIPOL =      0    1-x, 2-y, 3-z, 4-all directions 
   EPSILON=  1.0000000 bulk dielectric constant

 Exchange correlation treatment:
   GGA     =    --    GGA type
   LEXCH   =     8    internal setting for exchange type
   LIBXC   =     F    Libxc                    
   VOSKOWN =     0    Vosko Wilk Nusair interpolation
   LHFCALC =     F    Hartree Fock is set to
   LHFONE  =     F    Hartree Fock one center treatment
   AEXX    =    0.0000 exact exchange contribution

 Linear response parameters
   LEPSILON=     F    determine dielectric tensor
   LRPA    =     F    only Hartree local field effects (RPA)
   LNABLA  =     F    use nabla operator in PAW spheres
   LVEL    =     F    velocity operator in full k-point grid
   CSHIFT  =0.1000    complex shift for real part using Kramers Kronig
   OMEGAMAX=  -1.0    maximum frequency
   DEG_THRESHOLD= 0.2000000E-02 threshold for treating states as degnerate
   RTIME   =   -0.100 relaxation time in fs
  (WPLASMAI=    0.000 imaginary part of plasma frequency in eV, 0.658/RTIME)
   DFIELD  = 0.0000000 0.0000000 0.0000000 field for delta impulse in time

  Optional k-point grid parameters
   LKPOINTS_OPT  =     F    use optional k-point grid
   KPOINTS_OPT_MODE=     1    mode for optional k-point grid

 Orbital magnetization related:
   ORBITALMAG=     F  switch on orbital magnetization
   LCHIMAG   =     F  perturbation theory with respect to B field
   DQ        =  0.001000  dq finite difference perturbation B field
   LLRAUG    =     F  two centre corrections for induced B field



--------------------------------------------------------------------------------------------------------


 Static calculation
 charge density and potential remain constant during run
 non-spin polarized calculation
 Variant of blocked Davidson
 Davidson routine will perform the subspace rotation
 perform sub-space diagonalisation
    after iterative eigenvector-optimisation
 no mixing
 using additional bands            4
 reciprocal scheme for non local part
 use partial core corrections
 calculate Harris-corrections to forces   (improved forces if not selfconsistent)
 use gradient corrections 
 WARNING: stress and forces are not correct
  (second derivative of E(xc) not defined)
 use of overlap-Matrix (Vanderbilt PP)
 Fermi weights with tetrahedron method with Bloechl corrections


--------------------------------------------------------------------------------------------------------


  energy-cutoff  :      450.00
  volume of cell :       40.89
      direct lattice vectors                 reciprocal lattice vectors
     0.000000000  2.734310366  2.734310366    -0.182861465  0.182861465  0.182861465
     2.734310366  0.000000000  2.734310366     0.182861465 -0.182861465  0.182861465
     2.734310366  2.734310366  0.000000000     0.182861465  0.182861465 -0.182861465

  length of vectors
     3.866898804  3.866898804  3.866898804     0.316725349  0.316725349  0.316725349



 old parameters found on file WAVECAR:
  energy-cutoff  :      450.00
  volume of cell :       40.89
      direct lattice vectors                 reciprocal lattice vectors
     0.000000000  2.734310366  2.734310366    -0.182861465  0.182861465  0.182861465
     2.734310366  0.000000000  2.734310366     0.182861465 -0.182861465  0.182861465
     2.734310366  2.734310366  0.000000000     0.182861465  0.182861465 -0.182861465

  length of vectors


 k-points in units of 2pi/SCALE and weight: K-Spacing Value to Generate K-Mesh: 0.03
   0.00000000  0.00000000  0.00000000       0.001
  -0.09404964  0.09404964  0.09404964       0.006
  -0.18809928  0.18809928  0.18809928       0.006
  -0.28214892  0.28214892  0.28214892       0.006
  -0.37619857  0.37619857  0.37619857       0.006
  -0.47024821  0.47024821  0.47024821       0.006
   0.00000000  0.00000000  0.18809928       0.005
  -0.09404964  0.09404964  0.28214892       0.018
  -0.18809928  0.18809928  0.37619857       0.018
  -0.28214892  0.28214892  0.47024821       0.018
  -0.37619857  0.37619857  0.56429785       0.018
   0.56429785 -0.56429785 -0.37619857       0.018
   0.47024821 -0.47024821 -0.28214892       0.018
   0.37619857 -0.37619857 -0.18809928       0.018
   0.28214892 -0.28214892 -0.09404964       0.018
   0.18809928 -0.18809928  0.00000000       0.009
   0.00000000  0.00000000  0.37619857       0.005
  -0.09404964  0.09404964  0.47024821       0.018
  -0.18809928  0.18809928  0.56429785       0.018
  -0.28214892  0.28214892  0.65834749       0.018
   0.65834749 -0.65834749 -0.28214892       0.018
   0.56429785 -0.56429785 -0.18809928       0.018
   0.47024821 -0.47024821 -0.09404964       0.018
   0.37619857 -0.37619857  0.00000000       0.009
   0.00000000  0.00000000  0.56429785       0.005
  -0.09404964  0.09404964  0.65834749       0.018
  -0.18809928  0.18809928  0.75239713       0.018
   0.75239713 -0.75239713 -0.18809928       0.018
   0.65834749 -0.65834749 -0.09404964       0.018
   0.56429785 -0.56429785  0.00000000       0.009
   0.00000000  0.00000000  0.75239713       0.005
  -0.09404964  0.09404964  0.84644677       0.018
   0.84644677 -0.84644677 -0.09404964       0.018
   0.75239713 -0.75239713  0.00000000       0.009
   0.00000000  0.00000000  0.94049641       0.005
   0.94049641 -0.94049641  0.00000000       0.009
   0.00000000  0.18809928  0.37619857       0.018
  -0.09404964  0.28214892  0.47024821       0.036
  -0.18809928  0.37619857  0.56429785       0.036
   0.75239713 -0.56429785 -0.37619857       0.036
   0.00000000  0.18809928  0.56429785       0.018
  -0.09404964  0.28214892  0.65834749       0.036
   0.84644677 -0.65834749 -0.28214892       0.036
   0.75239713 -0.56429785 -0.18809928       0.036
   0.65834749 -0.47024821 -0.09404964       0.036
   0.56429785 -0.37619857  0.00000000       0.018
   0.00000000  0.18809928  0.75239713       0.018
   0.94049641 -0.75239713 -0.18809928       0.036
   0.84644677 -0.65834749 -0.09404964       0.036
   0.75239713 -0.56429785  0.00000000       0.018
   1.03454605 -0.84644677 -0.09404964       0.018
   0.94049641 -0.75239713 -0.00000000       0.018
   1.03454605 -0.65834749 -0.28214892       0.018
   0.94049641 -0.56429785 -0.18809928       0.036
   1.03454605 -0.65834749 -0.09404964       0.018
   0.94049641 -0.56429785  0.00000000       0.018

 k-points in reciprocal lattice and weights: K-Spacing Value to Generate K-Mesh: 0.03
   0.00000000  0.00000000  0.00000000       0.001
   0.09090909  0.00000000  0.00000000       0.006
   0.18181818  0.00000000  0.00000000       0.006
   0.27272727  0.00000000  0.00000000       0.006
   0.36363636  0.00000000  0.00000000       0.006
   0.45454545  0.00000000  0.00000000       0.006
   0.09090909  0.09090909  0.00000000       0.005
   0.18181818  0.09090909  0.00000000       0.018
   0.27272727  0.09090909  0.00000000       0.018
   0.36363636  0.09090909  0.00000000       0.018
   0.45454545  0.09090909  0.00000000       0.018
  -0.45454545  0.09090909  0.00000000       0.018
  -0.36363636  0.09090909  0.00000000       0.018
  -0.27272727  0.09090909  0.00000000       0.018
  -0.18181818  0.09090909  0.00000000       0.018
  -0.09090909  0.09090909  0.00000000       0.009
   0.18181818  0.18181818  0.00000000       0.005
   0.27272727  0.18181818  0.00000000       0.018
   0.36363636  0.18181818  0.00000000       0.018
   0.45454545  0.18181818  0.00000000       0.018
  -0.45454545  0.18181818  0.00000000       0.018
  -0.36363636  0.18181818  0.00000000       0.018
  -0.27272727  0.18181818  0.00000000       0.018
  -0.18181818  0.18181818  0.00000000       0.009
   0.27272727  0.27272727  0.00000000       0.005
   0.36363636  0.27272727  0.00000000       0.018
   0.45454545  0.27272727  0.00000000       0.018
  -0.45454545  0.27272727  0.00000000       0.018
  -0.36363636  0.27272727  0.00000000       0.018
  -0.27272727  0.27272727  0.00000000       0.009
   0.36363636  0.36363636  0.00000000       0.005
   0.45454545  0.36363636  0.00000000       0.018
  -0.45454545  0.36363636  0.00000000       0.018
  -0.36363636  0.36363636  0.00000000       0.009
   0.45454545  0.45454545  0.00000000       0.005
  -0.45454545  0.45454545  0.00000000       0.009
   0.27272727  0.18181818  0.09090909       0.018
   0.36363636  0.18181818  0.09090909       0.036
   0.45454545  0.18181818  0.09090909       0.036
  -0.45454545  0.18181818  0.09090909       0.036
   0.36363636  0.27272727  0.09090909       0.018
   0.45454545  0.27272727  0.09090909       0.036
  -0.45454545  0.27272727  0.09090909       0.036
  -0.36363636  0.27272727  0.09090909       0.036
  -0.27272727  0.27272727  0.09090909       0.036
  -0.18181818  0.27272727  0.09090909       0.018
   0.45454545  0.36363636  0.09090909       0.018
  -0.45454545  0.36363636  0.09090909       0.036
  -0.36363636  0.36363636  0.09090909       0.036
  -0.27272727  0.36363636  0.09090909       0.018
  -0.45454545  0.45454545  0.09090909       0.018
  -0.36363636  0.45454545  0.09090909       0.018
  -0.45454545  0.36363636  0.18181818       0.018
  -0.36363636  0.36363636  0.18181818       0.036
  -0.36363636  0.45454545  0.18181818       0.018
  -0.27272727  0.45454545  0.18181818       0.018

 position of ions in fractional coordinates (direct lattice) 
   0.87500000  0.87500000  0.87500000
   0.12500000  0.12500000  0.12500000

 position of ions in cartesian coordinates  (Angst):
   4.78504314  4.78504314  4.78504314
   0.68357759  0.68357759  0.68357759



--------------------------------------------------------------------------------------------------------


 k-point   1 :   0.0000 0.0000 0.0000  plane waves:     893
 k-point   2 :   0.0909 0.0000 0.0000  plane waves:     899
 k-point   3 :   0.1818 0.0000 0.0000  plane waves:     905
 k-point   4 :   0.2727 0.0000 0.0000  plane waves:     890
 k-point   5 :   0.3636 0.0000 0.0000  plane waves:     884
 k-point   6 :   0.4545 0.0000 0.0000  plane waves:     884
 k-point   7 :   0.0909 0.0909 0.0000  plane waves:     889
 k-point   8 :   0.1818 0.0909 0.0000  plane waves:     898
 k-point   9 :   0.2727 0.0909 0.0000  plane waves:     887
 k-point  10 :   0.3636 0.0909 0.0000  plane waves:     886
 k-point  11 :   0.4545 0.0909 0.0000  plane waves:     887
 k-point  12 :  -0.4545 0.0909 0.0000  plane waves:     881
 k-point  13 :  -0.3636 0.0909 0.0000  plane waves:     881
 k-point  14 :  -0.2727 0.0909 0.0000  plane waves:     885
 k-point  15 :  -0.1818 0.0909 0.0000  plane waves:     897
 k-point  16 :  -0.0909 0.0909 0.0000  plane waves:     903
 k-point  17 :   0.1818 0.1818 0.0000  plane waves:     885
 k-point  18 :   0.2727 0.1818 0.0000  plane waves:     880
 k-point  19 :   0.3636 0.1818 0.0000  plane waves:     880
 k-point  20 :   0.4545 0.1818 0.0000  plane waves:     887
 k-point  21 :  -0.4545 0.1818 0.0000  plane waves:     879
 k-point  22 :  -0.3636 0.1818 0.0000  plane waves:     880
 k-point  23 :  -0.2727 0.1818 0.0000  plane waves:     893
 k-point  24 :  -0.1818 0.1818 0.0000  plane waves:     889
 k-point  25 :   0.2727 0.2727 0.0000  plane waves:     882
 k-point  26 :   0.3636 0.2727 0.0000  plane waves:     887
 k-point  27 :   0.4545 0.2727 0.0000  plane waves:     891
 k-point  28 :  -0.4545 0.2727 0.0000  plane waves:     880
 k-point  29 :  -0.3636 0.2727 0.0000  plane waves:     878
 k-point  30 :  -0.2727 0.2727 0.0000  plane waves:     891
 k-point  31 :   0.3636 0.3636 0.0000  plane waves:     882
 k-point  32 :   0.4545 0.3636 0.0000  plane waves:     893
 k-point  33 :  -0.4545 0.3636 0.0000  plane waves:     890
 k-point  34 :  -0.3636 0.3636 0.0000  plane waves:     890
 k-point  35 :   0.4545 0.4545 0.0000  plane waves:     886
 k-point  36 :  -0.4545 0.4545 0.0000  plane waves:     888
 k-point  37 :   0.2727 0.1818 0.0909  plane waves:     895
 k-point  38 :   0.3636 0.1818 0.0909  plane waves:     884
 k-point  39 :   0.4545 0.1818 0.0909  plane waves:     884
 k-point  40 :  -0.4545 0.1818 0.0909  plane waves:     887
 k-point  41 :   0.3636 0.2727 0.0909  plane waves:     888
 k-point  42 :   0.4545 0.2727 0.0909  plane waves:     881
 k-point  43 :  -0.4545 0.2727 0.0909  plane waves:     891
 k-point  44 :  -0.3636 0.2727 0.0909  plane waves:     881
 k-point  45 :  -0.2727 0.2727 0.0909  plane waves:     888
 k-point  46 :  -0.1818 0.2727 0.0909  plane waves:     885
 k-point  47 :   0.4545 0.3636 0.0909  plane waves:     881
 k-point  48 :  -0.4545 0.3636 0.0909  plane waves:     884
 k-point  49 :  -0.3636 0.3636 0.0909  plane waves:     889
 k-point  50 :  -0.2727 0.3636 0.0909  plane waves:     883
 k-point  51 :  -0.4545 0.4545 0.0909  plane waves:     886
 k-point  52 :  -0.3636 0.4545 0.0909  plane waves:     885
 k-point  53 :  -0.4545 0.3636 0.1818  plane waves:     887
 k-point  54 :  -0.3636 0.3636 0.1818  plane waves:     888
 k-point  55 :  -0.3636 0.4545 0.1818  plane waves:     893
 k-point  56 :  -0.2727 0.4545 0.1818  plane waves:     884

 maximum and minimum number of plane-waves per node :       905      878

 maximum number of plane-waves:       905
 maximum index in each direction: 
   IXMAX=    7   IYMAX=    6   IZMAX=    6
   IXMIN=   -7   IYMIN=   -7   IZMIN=   -6


 serial   3D FFT for wavefunctions
 parallel 3D FFT for charge:
    minimum data exchange during FFTs selected (reduces bandwidth)


 total amount of memory used by VASP MPI-rank0    63293. kBytes
=======================================================================

   base      :      30000. kBytes
   nonl-proj :       7334. kBytes
   fftplans  :      13127. kBytes
   grid      :       5205. kBytes
   one-center:         31. kBytes
   wavefun   :       7596. kBytes

     INWAV:  cpu time      0.0229: real time      0.0231
 initial charge density was supplied:
 number of electron      28.0000002 magnetization 
 keeping initial charge density in first step


--------------------------------------------------------------------------------------------------------


 Maximum index for augmentation-charges        70109 (set IRDMAX)


--------------------------------------------------------------------------------------------------------


 First call to EWALD:  gamma=   0.514
 Maximum number of real-space cells 3x 3x 3
 Maximum number of reciprocal cells 3x 3x 3

    FEWALD:  cpu time      0.0006: real time      0.0006


--------------------------------------- Iteration      1(   1)  ---------------------------------------


    POTLOK:  cpu time      0.0540: real time      0.0546
    SETDIJ:  cpu time      0.0754: real time      0.0754
     EDDAV:  cpu time      1.5066: real time      1.5146
 BZINTS: Fermi energy:    6.495184;   28.000000 electrons
         Band energy:-0.375237E+03;  BLOECHL correction:   -0.000000
       DOS:  cpu time      0.0099: real time      0.0107
    --------------------------------------------
      LOOP:  cpu time      1.6459: real time      1.6552

 eigenvalue-minimisations  :  2626
 total energy-change (2. order) :-0.8790051E+01  (-0.6363842E-05)
 number of electron      28.0000002 magnetization 
 augmentation part       28.0000002 magnetization 

 Free energy of the ion-electron system (eV)
  ---------------------------------------------------
  alpha Z        PSCENC =       143.31627977
  Ewald energy   TEWEN  =     -2780.12958164
  -Hartree energ DENC   =     -1458.19675081
  -exchange      EXHF   =         0.00000000
  -V(xc)+E(xc)   XCENC  =       146.33225652
  PAW double counting   =      4722.24551835    -5599.58563893
  entropy T*S    EENTRO =         0.00000000
  eigenvalues    EBANDS =      -375.23721191
  atomic energy  EATOM  =      5192.46507749
  Solvation  Ediel_sol  =         0.00000000
  ---------------------------------------------------
  free energy    TOTEN  =        -8.79005115 eV

  energy without entropy =       -8.79005115  energy(sigma->0) =       -8.79005115


--------------------------------------------------------------------------------------------------------




--------------------------------------- Iteration      1(   2)  ---------------------------------------


     EDDAV:  cpu time      1.2468: real time      1.2470
 BZINTS: Fermi energy:    6.495184;   28.000000 electrons
         Band energy:-0.375237E+03;  BLOECHL correction:   -0.000000
       DOS:  cpu time      0.0100: real time      0.0100
    --------------------------------------------
      LOOP:  cpu time      1.2568: real time      1.2570

 eigenvalue-minimisations  :  2100
 total energy-change (2. order) :-0.7473700E-06  (-0.7474131E-06)
 number of electron      28.0000002 magnetization 
 augmentation part       28.0000002 magnetization 

 Free energy of the ion-electron system (eV)
  ---------------------------------------------------
  alpha Z        PSCENC =       143.31627977
  Ewald energy   TEWEN  =     -2780.12958164
  -Hartree energ DENC   =     -1458.19675081
  -exchange      EXHF   =         0.00000000
  -V(xc)+E(xc)   XCENC  =       146.33225652
  PAW double counting   =      4722.24551835    -5599.58563893
  entropy T*S    EENTRO =         0.00000000
  eigenvalues    EBANDS =      -375.23721266
  atomic energy  EATOM  =      5192.46507749
  Solvation  Ediel_sol  =         0.00000000
  ---------------------------------------------------
  free energy    TOTEN  =        -8.79005190 eV

  energy without entropy =       -8.79005190  energy(sigma->0) =       -8.79005190


--------------------------------------------------------------------------------------------------------




 average (electrostatic) potential at core
  the test charge radii are     0.9911
  (the norm of the test charge is              1.0000)
       1 -73.4188       2 -73.4188



 E-fermi :   6.4952     XC(G=0): -10.4186     alpha+bet :-11.5343

 Fermi energy:         6.4951836799

 k-point     1 :       0.0000    0.0000    0.0000
  band No.  band energies     occupation 
      1     -18.9471      2.00000
      2     -18.9471      2.00000
      3     -18.9471      2.00000
      4     -18.9019      2.00000
      5     -18.9019      2.00000
      6     -18.6302      2.00000
      7     -18.6302      2.00000
      8     -18.6302      2.00000
      9     -18.6043      2.00000
     10     -18.6043      2.00000
     11      -7.5546      2.00000
     12       6.0402      2.00000
     13       6.0402      2.00000
     14       6.0402      2.00000
     15       7.0481      0.00000
     16       8.6342      0.00000
     17       8.6343      0.00000
     18       8.6343      0.00000

 k-point     2 :       0.0909    0.0000    0.0000
  band No.  band energies     occupation 
      1     -18.9537      2.00000
      2     -18.9537      2.00000
      3     -18.9453      2.00000
      4     -18.8928      2.00000
      5     -18.8928      2.00000
      6     -18.6380      2.00000
      7     -18.6380      2.00000
      8     -18.6323      2.00000
      9     -18.5978      2.00000
     10     -18.5978      2.00000
     11      -7.4434      2.00000
     12       4.5135      2.00000
     13       5.8148      2.00000
     14       5.8148      2.00000
     15       7.6208      0.00000
     16       8.9307      0.00000
     17       8.9307      0.00000
     18       9.3203      0.00000

 k-point     3 :       0.1818    0.0000    0.0000
  band No.  band energies     occupation 
      1     -18.9644      2.00000
      2     -18.9644      2.00000
      3     -18.9408      2.00000
      4     -18.8759      2.00000
      5     -18.8759      2.00000
      6     -18.6510      2.00000
      7     -18.6510      2.00000
      8     -18.6378      2.00000
      9     -18.5880      2.00000
     10     -18.5880      2.00000
     11      -7.1142      2.00000
     12       2.5475      2.00000
     13       5.3682      2.00000
     14       5.3682      2.00000
     15       7.3631      0.00000
     16       9.4980      0.00000
     17       9.4980      0.00000
     18      10.9924      0.00000

 k-point     4 :       0.2727    0.0000    0.0000
  band No.  band energies     occupation 
      1     -18.9722      2.00000
      2     -18.9722      2.00000
      3     -18.9346      2.00000
      4     -18.8608      2.00000
      5     -18.8608      2.00000
      6     -18.6611      2.00000
      7     -18.6611      2.00000
      8     -18.6451      2.00000
      9     -18.5805      2.00000
     10     -18.5805      2.00000
     11      -6.5848      2.00000
     12       0.7129      2.00000
     13       4.9477      2.00000
     14       4.9477      2.00000
     15       6.9945      0.00000
     16       9.8636      0.00000
     17       9.8636      0.00000
     18      12.7239      0.00000

 k-point     5 :       0.3636    0.0000    0.0000
  band No.  band energies     occupation 
      1     -18.9762      2.00000
      2     -18.9762      2.00000
      3     -18.9292      2.00000
      4     -18.8517      2.00000
      5     -18.8517      2.00000
      6     -18.6663      2.00000
      7     -18.6663      2.00000
      8     -18.6521      2.00000
      9     -18.5763      2.00000
     10     -18.5763      2.00000
     11      -5.9124      2.00000
     12      -0.8548      2.00000
     13       4.6447      2.00000
     14       4.6447      2.00000
     15       6.7202      0.00000
     16       9.9050      0.00000
     17       9.9050      0.00000
     18      13.4325      0.00000

 k-point     6 :       0.4545    0.0000    0.0000
  band No.  band energies     occupation 
      1     -18.9777      2.00000
      2     -18.9777      2.00000
      3     -18.9259      2.00000
      4     -18.8479      2.00000
      5     -18.8479      2.00000
      6     -18.6679      2.00000
      7     -18.6679      2.00000
      8     -18.6563      2.00000
      9     -18.5747      2.00000
     10     -18.5747      2.00000
     11      -5.3066      2.00000
     12      -1.9145      2.00000
     13       4.4887      2.00000
     14       4.4887      2.00000
     15       6.5791      0.00000
     16       9.8435      0.00000
     17       9.8435      0.00000
     18      13.2311      0.00000

 k-point     7 :       0.0909    0.0909    0.0000
  band No.  band energies     occupation 
      1     -18.9547      2.00000
      2     -18.9508      2.00000
      3     -18.9508      2.00000
      4     -18.8955      2.00000
      5     -18.8833      2.00000
      6     -18.6571      2.00000
      7     -18.6239      2.00000
      8     -18.6239      2.00000
      9     -18.6100      2.00000
     10     -18.5913      2.00000
     11      -7.4062      2.00000
     12       4.5671      2.00000
     13       5.4141      2.00000
     14       5.4141      2.00000
     15       8.2083      0.00000
     16       8.4380      0.00000
     17       9.4466      0.00000
     18       9.4466      0.00000

 k-point     8 :       0.1818    0.0909    0.0000
  band No.  band energies     occupation 
      1     -18.9661      2.00000
      2     -18.9582      2.00000
      3     -18.9470      2.00000
      4     -18.8837      2.00000
      5     -18.8651      2.00000
      6     -18.6761      2.00000
      7     -18.6318      2.00000
      8     -18.6229      2.00000
      9     -18.6029      2.00000
     10     -18.5834      2.00000
     11      -7.1487      2.00000
     12       3.0404      2.00000
     13       4.9227      2.00000
     14       5.0400      2.00000
     15       8.1833      0.00000
     16       8.6720      0.00000
     17      10.1389      0.00000
     18      10.6476      0.00000

 k-point     9 :       0.2727    0.0909    0.0000
  band No.  band energies     occupation 
      1     -18.9773      2.00000
      2     -18.9668      2.00000
      3     -18.9376      2.00000
      4     -18.8682      2.00000
      5     -18.8479      2.00000
      6     -18.6900      2.00000
      7     -18.6454      2.00000
      8     -18.6310      2.00000
      9     -18.5914      2.00000
     10     -18.5742      2.00000
     11      -6.6830      2.00000
     12       1.2610      2.00000
     13       4.5212      2.00000
     14       4.5493      2.00000
     15       7.9654      0.00000
     16       9.1363      0.00000
     17      10.5895      0.00000
     18      11.5896      0.00000

 k-point    10 :       0.3636    0.0909    0.0000
  band No.  band energies     occupation 
      1     -18.9848      2.00000
      2     -18.9732      2.00000
      3     -18.9268      2.00000
      4     -18.8552      2.00000
      5     -18.8380      2.00000
      6     -18.6951      2.00000
      7     -18.6573      2.00000
      8     -18.6435      2.00000
      9     -18.5822      2.00000
     10     -18.5672      2.00000
     11      -6.0469      2.00000
     12      -0.3641      2.00000
     13       4.0834      2.00000
     14       4.2760      2.00000
     15       7.6551      0.00000
     16       9.4812      0.00000
     17      10.6023      0.00000
     18      12.4686      0.00000

 k-point    11 :       0.4545    0.0909    0.0000
  band No.  band energies     occupation 
      1     -18.9882      2.00000
      2     -18.9776      2.00000
      3     -18.9175      2.00000
      4     -18.8455      2.00000
      5     -18.8373      2.00000
      6     -18.6899      2.00000
      7     -18.6676      2.00000
      8     -18.6557      2.00000
      9     -18.5753      2.00000
     10     -18.5640      2.00000
     11      -5.3743      2.00000
     12      -1.6189      2.00000
     13       3.7353      2.00000
     14       4.2077      2.00000
     15       7.4489      0.00000
     16       9.5748      0.00000
     17      10.3912      0.00000
     18      13.4487      0.00000

 k-point    12 :      -0.4545    0.0909    0.0000
  band No.  band energies     occupation 
      1     -18.9875      2.00000
      2     -18.9808      2.00000
      3     -18.9130      2.00000
      4     -18.8430      2.00000
      5     -18.8387      2.00000
      6     -18.6769      2.00000
      7     -18.6767      2.00000
      8     -18.6646      2.00000
      9     -18.5704      2.00000
     10     -18.5653      2.00000
     11      -5.1122      2.00000
     12      -2.0270      2.00000
     13       3.5414      2.00000
     14       4.3161      2.00000
     15       7.3816      0.00000
     16       9.6883      0.00000
     17      10.1846      0.00000
     18      13.7349      0.00000

 k-point    13 :      -0.3636    0.0909    0.0000
  band No.  band energies     occupation 
      1     -18.9835      2.00000
      2     -18.9823      2.00000
      3     -18.9161      2.00000
      4     -18.8511      2.00000
      5     -18.8366      2.00000
      6     -18.6826      2.00000
      7     -18.6686      2.00000
      8     -18.6595      2.00000
      9     -18.5714      2.00000
     10     -18.5680      2.00000
     11      -5.5867      2.00000
     12      -1.2574      2.00000
     13       3.5228      2.00000
     14       4.5866      2.00000
     15       7.4574      0.00000
     16       9.9035      0.00000
     17      10.0382      0.00000
     18      13.6199      0.00000

 k-point    14 :      -0.2727    0.0909    0.0000
  band No.  band energies     occupation 
      1     -18.9807      2.00000
      2     -18.9763      2.00000
      3     -18.9251      2.00000
      4     -18.8606      2.00000
      5     -18.8425      2.00000
      6     -18.6815      2.00000
      7     -18.6669      2.00000
      8     -18.6406      2.00000
      9     -18.5818      2.00000
     10     -18.5694      2.00000
     11      -6.2750      2.00000
     12       0.1525      2.00000
     13       3.6963      2.00000
     14       4.9880      2.00000
     15       7.6652      0.00000
     16       9.8448      0.00000
     17      10.0948      0.00000
     18      12.6007      0.00000

 k-point    15 :      -0.1818    0.0909    0.0000
  band No.  band energies     occupation 
      1     -18.9749      2.00000
      2     -18.9661      2.00000
      3     -18.9363      2.00000
      4     -18.8728      2.00000
      5     -18.8572      2.00000
      6     -18.6717      2.00000
      7     -18.6596      2.00000
      8     -18.6233      2.00000
      9     -18.5960      2.00000
     10     -18.5751      2.00000
     11      -6.8612      2.00000
     12       1.8308      2.00000
     13       4.0870      2.00000
     14       5.4541      2.00000
     15       7.9575      0.00000
     16       9.4320      0.00000
     17       9.8205      0.00000
     18      11.5437      0.00000

 k-point    16 :      -0.0909    0.0909    0.0000
  band No.  band energies     occupation 
      1     -18.9647      2.00000
      2     -18.9553      2.00000
      3     -18.9450      2.00000
      4     -18.8861      2.00000
      5     -18.8765      2.00000
      6     -18.6558      2.00000
      7     -18.6479      2.00000
      8     -18.6173      2.00000
      9     -18.6057      2.00000
     10     -18.5849      2.00000
     11      -7.2592      2.00000
     12       3.4763      2.00000
     13       4.8003      2.00000
     14       5.8243      2.00000
     15       8.0626      0.00000
     16       8.9629      0.00000
     17       9.1452      0.00000
     18      10.4894      0.00000

 k-point    17 :       0.1818    0.1818    0.0000
  band No.  band energies     occupation 
      1     -18.9608      2.00000
      2     -18.9608      2.00000
      3     -18.9608      2.00000
      4     -18.8772      2.00000
      5     -18.8446      2.00000
      6     -18.7033      2.00000
      7     -18.6268      2.00000
      8     -18.6072      2.00000
      9     -18.6072      2.00000
     10     -18.5848      2.00000
     11      -6.9630      2.00000
     12       2.7168      2.00000
     13       4.4067      2.00000
     14       4.4067      2.00000
     15       7.4486      0.00000
     16       9.4524      0.00000
     17      10.9997      0.00000
     18      10.9997      0.00000

 k-point    18 :       0.2727    0.1818    0.0000
  band No.  band energies     occupation 
      1     -18.9763      2.00000
      2     -18.9677      2.00000
      3     -18.9479      2.00000
      4     -18.8626      2.00000
      5     -18.8240      2.00000
      6     -18.7252      2.00000
      7     -18.6422      2.00000
      8     -18.6107      2.00000
      9     -18.5942      2.00000
     10     -18.5770      2.00000
     11      -6.5645      2.00000
     12       1.4732      2.00000
     13       3.8539      2.00000
     14       3.9905      2.00000
     15       7.5350      0.00000
     16       9.3254      0.00000
     17      11.3112      0.00000
     18      11.6777      0.00000

 k-point    19 :       0.3636    0.1818    0.0000
  band No.  band energies     occupation 
      1     -18.9898      2.00000
      2     -18.9745      2.00000
      3     -18.9299      2.00000
      4     -18.8469      2.00000
      5     -18.8101      2.00000
      6     -18.7370      2.00000
      7     -18.6592      2.00000
      8     -18.6294      2.00000
      9     -18.5819      2.00000
     10     -18.5630      2.00000
     11      -5.9781      2.00000
     12       0.0238      2.00000
     13       3.2058      2.00000
     14       3.7431      2.00000
     15       7.7828      0.00000
     16       9.7361      0.00000
     17      11.0994      0.00000
     18      11.8369      0.00000

 k-point    20 :       0.4545    0.1818    0.0000
  band No.  band energies     occupation 
      1     -18.9990      2.00000
      2     -18.9803      2.00000
      3     -18.9113      2.00000
      4     -18.8325      2.00000
      5     -18.8088      2.00000
      6     -18.7343      2.00000
      7     -18.6759      2.00000
      8     -18.6502      2.00000
      9     -18.5720      2.00000
     10     -18.5527      2.00000
     11      -5.2878      2.00000
     12      -1.2687      2.00000
     13       2.6576      2.00000
     14       3.6893      2.00000
     15       7.7728      0.00000
     16      10.2772      0.00000
     17      11.6009      0.00000
     18      11.6560      0.00000

 k-point    21 :      -0.4545    0.1818    0.0000
  band No.  band energies     occupation 
      1     -19.0027      2.00000
      2     -18.9850      2.00000
      3     -18.8974      2.00000
      4     -18.8205      2.00000
      5     -18.8192      2.00000
      6     -18.7189      2.00000
      7     -18.6914      2.00000
      8     -18.6658      2.00000
      9     -18.5647      2.00000
     10     -18.5488      2.00000
     11      -4.8137      2.00000
     12      -1.9876      2.00000
     13       2.2892      2.00000
     14       3.8312      2.00000
     15       7.8131      0.00000
     16      10.2892      0.00000
     17      11.2690      0.00000
     18      13.2494      0.00000

 k-point    22 :      -0.3636    0.1818    0.0000
  band No.  band energies     occupation 
      1     -19.0001      2.00000
      2     -18.9879      2.00000
      3     -18.8935      2.00000
      4     -18.8364      2.00000
      5     -18.8141      2.00000
      6     -18.7024      2.00000
      7     -18.6962      2.00000
      8     -18.6715      2.00000
      9     -18.5608      2.00000
     10     -18.5529      2.00000
     11      -5.0936      2.00000
     12      -1.5708      2.00000
     13       2.1426      2.00000
     14       4.1526      2.00000
     15       7.9893      0.00000
     16      10.3599      0.00000
     17      10.9470      0.00000
     18      13.7773      0.00000

 k-point    23 :      -0.2727    0.1818    0.0000
  band No.  band energies     occupation 
      1     -18.9915      2.00000
      2     -18.9879      2.00000
      3     -18.9025      2.00000
      4     -18.8523      2.00000
      5     -18.8191      2.00000
      6     -18.7026      2.00000
      7     -18.6800      2.00000
      8     -18.6588      2.00000
      9     -18.5650      2.00000
     10     -18.5611      2.00000
     11      -5.7702      2.00000
     12      -0.4156      2.00000
     13       2.2780      2.00000
     14       4.6116      2.00000
     15       8.2572      0.00000
     16      10.5434      0.00000
     17      10.5441      0.00000
     18      12.2076      0.00000

 k-point    24 :      -0.1818    0.1818    0.0000
  band No.  band energies     occupation 
      1     -18.9834      2.00000
      2     -18.9785      2.00000
      3     -18.9205      2.00000
      4     -18.8637      2.00000
      5     -18.8357      2.00000
      6     -18.6906      2.00000
      7     -18.6714      2.00000
      8     -18.6340      2.00000
      9     -18.5832      2.00000
     10     -18.5658      2.00000
     11      -6.4012      2.00000
     12       0.8582      2.00000
     13       2.8575      2.00000
     14       5.1142      2.00000
     15       8.4256      0.00000
     16       9.9389      0.00000
     17      10.2813      0.00000
     18      11.4635      0.00000

 k-point    25 :       0.2727    0.2727    0.0000
  band No.  band energies     occupation 
      1     -18.9726      2.00000
      2     -18.9726      2.00000
      3     -18.9554      2.00000
      4     -18.8483      2.00000
      5     -18.7981      2.00000
      6     -18.7564      2.00000
      7     -18.6534      2.00000
      8     -18.5939      2.00000
      9     -18.5865      2.00000
     10     -18.5865      2.00000
     11      -6.2323      2.00000
     12       0.8940      2.00000
     13       3.5440      2.00000
     14       3.5440      2.00000
     15       6.8281      0.00000
     16       8.7311      0.00000
     17      12.7392      0.00000
     18      12.7392      0.00000

 k-point    26 :       0.3636    0.2727    0.0000
  band No.  band energies     occupation 
      1     -18.9858      2.00000
      2     -18.9784      2.00000
      3     -18.9378      2.00000
      4     -18.8309      2.00000
      5     -18.7797      2.00000
      6     -18.7756      2.00000
      7     -18.6709      2.00000
      8     -18.6162      2.00000
      9     -18.5760      2.00000
     10     -18.5675      2.00000
     11      -5.7025      2.00000
     12      -0.1353      2.00000
     13       2.9320      2.00000
     14       3.2636      2.00000
     15       7.0087     -0.00000
     16       8.4902      0.00000
     17      12.7866      0.00000
     18      13.2888      0.00000

 k-point    27 :       0.4545    0.2727    0.0000
  band No.  band energies     occupation 
      1     -19.0003      2.00000
      2     -18.9838      2.00000
      3     -18.9125      2.00000
      4     -18.8134      2.00000
      5     -18.7881      2.00000
      6     -18.7648      2.00000
      7     -18.6902      2.00000
      8     -18.6442      2.00000
      9     -18.5667      2.00000
     10     -18.5506      2.00000
     11      -5.0268      2.00000
     12      -1.2197      2.00000
     13       2.1367      2.00000
     14       3.1816      2.00000
     15       7.2480      0.00000
     16       9.3229      0.00000
     17      12.4282      0.00000
     18      13.1865      0.00000

 k-point    28 :      -0.4545    0.2727    0.0000
  band No.  band energies     occupation 
      1     -19.0098      2.00000
      2     -18.9881      2.00000
      3     -18.8915      2.00000
      4     -18.7976      2.00000
      5     -18.7849      2.00000
      6     -18.7642      2.00000
      7     -18.7094      2.00000
      8     -18.6663      2.00000
      9     -18.5598      2.00000
     10     -18.5402      2.00000
     11      -4.4138      2.00000
     12      -2.0360      2.00000
     13       1.5184      2.00000
     14       3.3046      2.00000
     15       7.3717      0.00000
     16      10.9611      0.00000
     17      12.1560      0.00000
     18      12.7983      0.00000

 k-point    29 :      -0.3636    0.2727    0.0000
  band No.  band energies     occupation 
      1     -19.0116      2.00000
      2     -18.9910      2.00000
      3     -18.8821      2.00000
      4     -18.8022      2.00000
      5     -18.7888      2.00000
      6     -18.7430      2.00000
      7     -18.7229      2.00000
      8     -18.6753      2.00000
      9     -18.5563      2.00000
     10     -18.5389      2.00000
     11      -4.4768      2.00000
     12      -1.9480      2.00000
     13       1.2258      2.00000
     14       3.6198      2.00000
     15       7.6315      0.00000
     16      11.9396      0.00000
     17      12.2930      0.00000
     18      13.0126      0.00000

 k-point    30 :      -0.2727    0.2727    0.0000
  band No.  band energies     occupation 
      1     -19.0051      2.00000
      2     -18.9913      2.00000
      3     -18.8850      2.00000
      4     -18.8323      2.00000
      5     -18.7974      2.00000
      6     -18.7196      2.00000
      7     -18.7072      2.00000
      8     -18.6736      2.00000
      9     -18.5566      2.00000
     10     -18.5478      2.00000
     11      -5.1161      2.00000
     12      -1.1530      2.00000
     13       1.4116      2.00000
     14       4.0869      2.00000
     15       8.0158      0.00000
     16      11.5282      0.00000
     17      11.9662      0.00000
     18      12.0207      0.00000

 k-point    31 :       0.3636    0.3636    0.0000
  band No.  band energies     occupation 
      1     -18.9828      2.00000
      2     -18.9828      2.00000
      3     -18.9366      2.00000
      4     -18.8115      2.00000
      5     -18.8108      2.00000
      6     -18.7481      2.00000
      7     -18.6880      2.00000
      8     -18.6177      2.00000
      9     -18.5683      2.00000
     10     -18.5683      2.00000
     11      -5.2280      2.00000
     12      -0.8614      2.00000
     13       2.9388      2.00000
     14       2.9388      2.00000
     15       6.4950      0.00000
     16       7.6569      0.00000
     17      14.5188      0.00000
     18      14.5188      0.00000

 k-point    32 :       0.4545    0.3636    0.0000
  band No.  band energies     occupation 
      1     -18.9931      2.00000
      2     -18.9866      2.00000
      3     -18.9140      2.00000
      4     -18.8300      2.00000
      5     -18.7919      2.00000
      6     -18.7286      2.00000
      7     -18.7081      2.00000
      8     -18.6426      2.00000
      9     -18.5615      2.00000
     10     -18.5556      2.00000
     11      -4.5846      2.00000
     12      -1.7340      2.00000
     13       2.3722      2.00000
     14       2.8103      2.00000
     15       6.7532     -0.00000
     16       7.6672      0.00000
     17      14.5557      0.00000
     18      14.8866      0.00000

 k-point    33 :      -0.4545    0.3636    0.0000
  band No.  band energies     occupation 
      1     -19.0063      2.00000
      2     -18.9896      2.00000
      3     -18.8884      2.00000
      4     -18.8266      2.00000
      5     -18.7734      2.00000
      6     -18.7291      2.00000
      7     -18.7284      2.00000
      8     -18.6695      2.00000
      9     -18.5568      2.00000
     10     -18.5421      2.00000
     11      -3.8995      2.00000
     12      -2.4908      2.00000
     13       1.5725      2.00000
     14       2.8907      2.00000
     15       6.9428      0.00000
     16       8.9389      0.00000
     17      14.1842      0.00000
     18      14.5102      0.00000

 k-point    34 :      -0.3636    0.3636    0.0000
  band No.  band energies     occupation 
      1     -19.0137      2.00000
      2     -18.9914      2.00000
      3     -18.8802      2.00000
      4     -18.7919      2.00000
      5     -18.7678      2.00000
      6     -18.7592      2.00000
      7     -18.7389      2.00000
      8     -18.6770      2.00000
      9     -18.5550      2.00000
     10     -18.5354      2.00000
     11      -3.8597      2.00000
     12      -2.5023      2.00000
     13       1.0745      2.00000
     14       3.1717      2.00000
     15       7.2079      0.00000
     16      10.8329      0.00000
     17      13.6437      0.00000
     18      13.6595      0.00000

 k-point    35 :       0.4545    0.4545    0.0000
  band No.  band energies     occupation 
      1     -18.9885      2.00000
      2     -18.9885      2.00000
      3     -18.9047      2.00000
      4     -18.8618      2.00000
      5     -18.7703      2.00000
      6     -18.7280      2.00000
      7     -18.6986      2.00000
      8     -18.6539      2.00000
      9     -18.5577      2.00000
     10     -18.5577      2.00000
     11      -3.9729      2.00000
     12      -2.5017      2.00000
     13       2.6290      2.00000
     14       2.6290      2.00000
     15       6.5047      0.00000
     16       6.8883      0.00000
     17      16.1038      0.00000
     18      16.1038      0.00000

 k-point    36 :      -0.4545    0.4545    0.0000
  band No.  band energies     occupation 
      1     -18.9959      2.00000
      2     -18.9895      2.00000
      3     -18.8838      2.00000
      4     -18.8697      2.00000
      5     -18.7513      2.00000
      6     -18.7480      2.00000
      7     -18.6885      2.00000
      8     -18.6756      2.00000
      9     -18.5561      2.00000
     10     -18.5508      2.00000
     11      -3.3086      2.00000
     12      -3.1773      2.00000
     13       2.1858      2.00000
     14       2.6567      2.00000
     15       6.7130      0.00000
     16       7.3327      0.00000
     17      15.8257      0.00000
     18      15.9038      0.00000

 k-point    37 :       0.2727    0.1818    0.0909
  band No.  band energies     occupation 
      1     -18.9749      2.00000
      2     -18.9660      2.00000
      3     -18.9413      2.00000
      4     -18.8725      2.00000
      5     -18.8454      2.00000
      6     -18.6970      2.00000
      7     -18.6432      2.00000
      8     -18.6160      2.00000
      9     -18.6002      2.00000
     10     -18.5755      2.00000
     11      -6.8213      2.00000
     12       2.0086      2.00000
     13       3.8129      2.00000
     14       4.9330      2.00000
     15       8.3192      0.00000
     16       8.9475      0.00000
     17      10.7169      0.00000
     18      11.0870      0.00000

 k-point    38 :       0.3636    0.1818    0.0909
  band No.  band energies     occupation 
      1     -18.9845      2.00000
      2     -18.9765      2.00000
      3     -18.9261      2.00000
      4     -18.8589      2.00000
      5     -18.8278      2.00000
      6     -18.7114      2.00000
      7     -18.6558      2.00000
      8     -18.6346      2.00000
      9     -18.5828      2.00000
     10     -18.5666      2.00000
     11      -6.2943      2.00000
     12       0.5819      2.00000
     13       3.1241      2.00000
     14       4.5540      2.00000
     15       8.4836      0.00000
     16       9.2640      0.00000
     17      11.0018      0.00000
     18      11.3793      0.00000

 k-point    39 :       0.4545    0.1818    0.0909
  band No.  band energies     occupation 
      1     -18.9930      2.00000
      2     -18.9827      2.00000
      3     -18.9103      2.00000
      4     -18.8463      2.00000
      5     -18.8190      2.00000
      6     -18.7151      2.00000
      7     -18.6659      2.00000
      8     -18.6573      2.00000
      9     -18.5707      2.00000
     10     -18.5591      2.00000
     11      -5.6228      2.00000
     12      -0.8340      2.00000
     13       2.7813      2.00000
     14       4.1589      2.00000
     15       8.3143      0.00000
     16       9.5055      0.00000
     17      11.1399      0.00000
     18      12.1788      0.00000

 k-point    40 :      -0.4545    0.1818    0.0909
  band No.  band energies     occupation 
      1     -18.9980      2.00000
      2     -18.9850      2.00000
      3     -18.9002      2.00000
      4     -18.8351      2.00000
      5     -18.8208      2.00000
      6     -18.7081      2.00000
      7     -18.6814      2.00000
      8     -18.6677      2.00000
      9     -18.5657      2.00000
     10     -18.5540      2.00000
     11      -5.0110      2.00000
     12      -1.8455      2.00000
     13       2.6398      2.00000
     14       3.9229      2.00000
     15       8.2011      0.00000
     16       9.4486      0.00000
     17      11.1564      0.00000
     18      13.5549      0.00000

 k-point    41 :       0.3636    0.2727    0.0909
  band No.  band energies     occupation 
      1     -18.9830      2.00000
      2     -18.9787      2.00000
      3     -18.9352      2.00000
      4     -18.8477      2.00000
      5     -18.8029      2.00000
      6     -18.7476      2.00000
      7     -18.6569      2.00000
      8     -18.6219      2.00000
      9     -18.5796      2.00000
     10     -18.5695      2.00000
     11      -6.1016      2.00000
     12       0.5124      2.00000
     13       2.9881      2.00000
     14       3.7763      2.00000
     15       7.6973      0.00000
     16       9.1395      0.00000
     17      11.3045      0.00000
     18      12.5887      0.00000

 k-point    42 :       0.4545    0.2727    0.0909
  band No.  band energies     occupation 
      1     -18.9954      2.00000
      2     -18.9858      2.00000
      3     -18.9128      2.00000
      4     -18.8319      2.00000
      5     -18.7891      2.00000
      6     -18.7586      2.00000
      7     -18.6743      2.00000
      8     -18.6459      2.00000
      9     -18.5670      2.00000
     10     -18.5565      2.00000
     11      -5.4679      2.00000
     12      -0.6383      2.00000
     13       2.3260      2.00000
     14       3.4319      2.00000
     15       8.0917      0.00000
     16       9.6552      0.00000
     17      10.9076      0.00000
     18      13.0254      0.00000

 k-point    43 :      -0.4545    0.2727    0.0909
  band No.  band energies     occupation 
      1     -19.0054      2.00000
      2     -18.9896      2.00000
      3     -18.8925      2.00000
      4     -18.8176      2.00000
      5     -18.7894      2.00000
      6     -18.7535      2.00000
      7     -18.6938      2.00000
      8     -18.6666      2.00000
      9     -18.5603      2.00000
     10     -18.5454      2.00000
     11      -4.7885      2.00000
     12      -1.6760      2.00000
     13       1.8797      2.00000
     14       3.2609      2.00000
     15       8.2036      0.00000
     16      10.3689      0.00000
     17      11.2727      0.00000
     18      12.9576      0.00000

 k-point    44 :      -0.3636    0.2727    0.0909
  band No.  band energies     occupation 
      1     -19.0085      2.00000
      2     -18.9917      2.00000
      3     -18.8825      2.00000
      4     -18.8136      2.00000
      5     -18.7938      2.00000
      6     -18.7407      2.00000
      7     -18.7073      2.00000
      8     -18.6755      2.00000
      9     -18.5570      2.00000
     10     -18.5421      2.00000
     11      -4.5292      2.00000
     12      -2.0219      2.00000
     13       1.6329      2.00000
     14       3.3578      2.00000
     15       8.3869      0.00000
     16      10.1453      0.00000
     17      12.5029      0.00000
     18      13.1829      0.00000

 k-point    45 :      -0.2727    0.2727    0.0909
  band No.  band energies     occupation 
      1     -19.0037      2.00000
      2     -18.9922      2.00000
      3     -18.8866      2.00000
      4     -18.8300      2.00000
      5     -18.7947      2.00000
      6     -18.7364      2.00000
      7     -18.6918      2.00000
      8     -18.6745      2.00000
      9     -18.5568      2.00000
     10     -18.5485      2.00000
     11      -5.0320      2.00000
     12      -1.3258      2.00000
     13       1.6517      2.00000
     14       3.6866      2.00000
     15       8.6954      0.00000
     16       9.9934      0.00000
     17      11.5967      0.00000
     18      12.8616      0.00000

 k-point    46 :      -0.1818    0.2727    0.0909
  band No.  band energies     occupation 
      1     -18.9921      2.00000
      2     -18.9897      2.00000
      3     -18.9042      2.00000
      4     -18.8467      2.00000
      5     -18.8071      2.00000
      6     -18.7284      2.00000
      7     -18.6673      2.00000
      8     -18.6605      2.00000
      9     -18.5638      2.00000
     10     -18.5598      2.00000
     11      -5.7190      2.00000
     12      -0.2900      2.00000
     13       2.0904      2.00000
     14       4.1531      2.00000
     15       9.0049      0.00000
     16       9.5273      0.00000
     17      10.8118      0.00000
     18      12.2177      0.00000

 k-point    47 :       0.4545    0.3636    0.0909
  band No.  band energies     occupation 
      1     -18.9904      2.00000
      2     -18.9892      2.00000
      3     -18.9184      2.00000
      4     -18.8125      2.00000
      5     -18.7994      2.00000
      6     -18.7561      2.00000
      7     -18.6894      2.00000
      8     -18.6369      2.00000
      9     -18.5619      2.00000
     10     -18.5601      2.00000
     11      -5.1185      2.00000
     12      -1.0088      2.00000
     13       2.4448      2.00000
     14       2.8859      2.00000
     15       7.3333     -0.00000
     16       8.2649      0.00000
     17      12.7194      0.00000
     18      14.4665      0.00000

 k-point    48 :      -0.4545    0.3636    0.0909
  band No.  band energies     occupation 
      1     -19.0038      2.00000
      2     -18.9931      2.00000
      3     -18.8906      2.00000
      4     -18.8065      2.00000
      5     -18.7946      2.00000
      6     -18.7462      2.00000
      7     -18.7104      2.00000
      8     -18.6655      2.00000
      9     -18.5553      2.00000
     10     -18.5456      2.00000
     11      -4.4222      2.00000
     12      -1.8858      2.00000
     13       1.7725      2.00000
     14       2.6904      2.00000
     15       7.7200      0.00000
     16       9.1591      0.00000
     17      12.2837      0.00000
     18      14.6304      0.00000

 k-point    49 :      -0.3636    0.3636    0.0909
  band No.  band energies     occupation 
      1     -19.0122      2.00000
      2     -18.9951      2.00000
      3     -18.8735      2.00000
      4     -18.7925      2.00000
      5     -18.7800      2.00000
      6     -18.7572      2.00000
      7     -18.7293      2.00000
      8     -18.6815      2.00000
      9     -18.5523      2.00000
     10     -18.5370      2.00000
     11      -3.9605      2.00000
     12      -2.3917      2.00000
     13       1.2337      2.00000
     14       2.8160      2.00000
     15       7.9332      0.00000
     16      10.9333      0.00000
     17      11.9008      0.00000
     18      13.4867      0.00000

 k-point    50 :      -0.2727    0.3636    0.0909
  band No.  band energies     occupation 
      1     -19.0121      2.00000
      2     -18.9952      2.00000
      3     -18.8734      2.00000
      4     -18.8012      2.00000
      5     -18.7722      2.00000
      6     -18.7606      2.00000
      7     -18.7255      2.00000
      8     -18.6811      2.00000
      9     -18.5524      2.00000
     10     -18.5381      2.00000
     11      -4.3562      2.00000
     12      -1.9639      2.00000
     13       1.1245      2.00000
     14       3.1766      2.00000
     15       8.2910      0.00000
     16      11.4367      0.00000
     17      11.8780      0.00000
     18      12.9973      0.00000

 k-point    51 :      -0.4545    0.4545    0.0909
  band No.  band energies     occupation 
      1     -18.9953      2.00000
      2     -18.9951      2.00000
      3     -18.8887      2.00000
      4     -18.8479      2.00000
      5     -18.7716      2.00000
      6     -18.7292      2.00000
      7     -18.7097      2.00000
      8     -18.6683      2.00000
      9     -18.5520      2.00000
     10     -18.5519      2.00000
     11      -3.9037      2.00000
     12      -2.5088      2.00000
     13       2.2284      2.00000
     14       2.3682      2.00000
     15       7.2890      0.00000
     16       7.5971      0.00000
     17      14.3494      0.00000
     18      15.6072      0.00000

 k-point    52 :      -0.3636    0.4545    0.0909
  band No.  band energies     occupation 
      1     -19.0067      2.00000
      2     -18.9961      2.00000
      3     -18.8692      2.00000
      4     -18.8359      2.00000
      5     -18.7577      2.00000
      6     -18.7473      2.00000
      7     -18.7175      2.00000
      8     -18.6869      2.00000
      9     -18.5507      2.00000
     10     -18.5412      2.00000
     11      -3.4020      2.00000
     12      -2.9724      2.00000
     13       1.5675      2.00000
     14       2.4480      2.00000
     15       7.5891      0.00000
     16       8.9542      0.00000
     17      13.8754      0.00000
     18      13.9495      0.00000

 k-point    53 :      -0.4545    0.3636    0.1818
  band No.  band energies     occupation 
      1     -19.0023      2.00000
      2     -18.9970      2.00000
      3     -18.8860      2.00000
      4     -18.8155      2.00000
      5     -18.7748      2.00000
      6     -18.7693      2.00000
      7     -18.6961      2.00000
      8     -18.6716      2.00000
      9     -18.5524      2.00000
     10     -18.5486      2.00000
     11      -4.8083      2.00000
     12      -1.4184      2.00000
     13       1.6504      2.00000
     14       2.9361      2.00000
     15       9.1668      0.00000
     16       9.7354      0.00000
     17      10.4207      0.00000
     18      14.2532      0.00000

 k-point    54 :      -0.3636    0.3636    0.1818
  band No.  band energies     occupation 
      1     -19.0102      2.00000
      2     -18.9994      2.00000
      3     -18.8662      2.00000
      4     -18.7999      2.00000
      5     -18.7787      2.00000
      6     -18.7607      2.00000
      7     -18.7211      2.00000
      8     -18.6866      2.00000
      9     -18.5492      2.00000
     10     -18.5392      2.00000
     11      -4.1674      2.00000
     12      -2.1549      2.00000
     13       1.3513      2.00000
     14       2.5927      2.00000
     15       9.5457      0.00000
     16       9.9234      0.00000
     17      11.2467      0.00000
     18      13.2015      0.00000

 k-point    55 :      -0.3636    0.4545    0.1818
  band No.  band energies     occupation 
      1     -19.0063      2.00000
      2     -19.0038      2.00000
      3     -18.8576      2.00000
      4     -18.8194      2.00000
      5     -18.7767      2.00000
      6     -18.7356      2.00000
      7     -18.7296      2.00000
      8     -18.6947      2.00000
      9     -18.5444      2.00000
     10     -18.5420      2.00000
     11      -3.7288      2.00000
     12      -2.5699      2.00000
     13       1.6108      2.00000
     14       2.0347      2.00000
     15       9.0774      0.00000
     16       9.2940      0.00000
     17      11.8068      0.00000
     18      13.5071      0.00000

 k-point    56 :      -0.2727    0.4545    0.1818
  band No.  band energies     occupation 
      1     -19.0112      2.00000
      2     -19.0039      2.00000
      3     -18.8473      2.00000
      4     -18.8076      2.00000
      5     -18.7733      2.00000
      6     -18.7478      2.00000
      7     -18.7355      2.00000
      8     -18.7016      2.00000
      9     -18.5440      2.00000
     10     -18.5373      2.00000
     11      -3.5355      2.00000
     12      -2.7383      2.00000
     13       1.3333      2.00000
     14       2.0723      2.00000
     15       9.4556      0.00000
     16      11.0899      0.00000
     17      11.3531      0.00000
     18      11.5105      0.00000


--------------------------------------------------------------------------------------------------------


 soft charge-density along one line, spin component           1
         0         1         2         3         4         5         6         7         8         9
 total charge-density along one line

 pseudopotential strength for first ion, spin component:           1
-21.408   0.000  -0.000   0.000   0.000   3.980  -0.000   0.000
  0.000 -21.408   0.000   0.000  -0.000  -0.000   3.980  -0.000
 -0.000   0.000 -21.404   0.000  -0.000   0.000  -0.000   3.979
  0.000   0.000   0.000 -21.408   0.000  -0.000  -0.000  -0.000
  0.000  -0.000  -0.000   0.000 -21.404  -0.000   0.000   0.000
  3.980  -0.000   0.000  -0.000  -0.000   2.113   0.000   0.000
 -0.000   3.980  -0.000  -0.000   0.000   0.000   2.113  -0.000
  0.000  -0.000   3.979  -0.000   0.000   0.000  -0.000   2.112
 -0.000  -0.000  -0.000   3.980  -0.000   0.000   0.000  -0.000
 -0.000   0.000   0.000  -0.000   3.979  -0.000   0.000  -0.000
  0.000   0.000  -0.000   0.000  -0.000  -0.000  -0.000   0.000
  0.000   0.000  -0.000   0.000  -0.000  -0.000  -0.000   0.000
 -0.000  -0.000  -0.000   0.000  -0.000   0.000   0.000   0.000
  0.000  -0.000   0.000  -0.000  -0.000  -0.001   0.000  -0.000
 -0.000   0.000  -0.000  -0.000   0.000   0.000  -0.001   0.000
 -0.000  -0.000  -0.000   0.001  -0.000   0.000   0.000   0.000
  0.001  -0.000   0.000  -0.000  -0.000  -0.001   0.000  -0.000
 -0.000   0.001  -0.000  -0.000   0.000   0.000  -0.001   0.000
 total augmentation occupancy for first ion, spin component:           1
  2.000   0.000   0.000   0.000   0.000   0.000   0.000   0.000   0.000   0.000   0.000   0.000   0.000   0.000   0.000   0.000
  0.000   2.000   0.000   0.000   0.000   0.000   0.000   0.000   0.000   0.000   0.000   0.000   0.000   0.000   0.000   0.000
  0.000   0.000   2.000   0.000   0.000   0.000   0.000   0.000   0.000   0.000   0.000   0.000   0.000   0.000   0.000   0.000
  0.000   0.000   0.000   2.000   0.000   0.000   0.000   0.000   0.000   0.000   0.000   0.000   0.000   0.000   0.000   0.000
  0.000   0.000   0.000   0.000   2.000   0.000   0.000   0.000   0.000   0.000   0.000   0.000   0.000   0.000   0.000   0.000
  0.000   0.000   0.000   0.000   0.000   0.000   0.000   0.000   0.000   0.000   0.000   0.000   0.000   0.000   0.000   0.000
  0.000   0.000   0.000   0.000   0.000   0.000   0.000   0.000   0.000   0.000   0.000   0.000   0.000   0.000   0.000   0.000
  0.000   0.000   0.000   0.000   0.000   0.000   0.000   0.000   0.000   0.000   0.000   0.000   0.000   0.000   0.000   0.000
  0.000   0.000   0.000   0.000   0.000   0.000   0.000   0.000   0.000   0.000   0.000   0.000   0.000   0.000   0.000   0.000
  0.000   0.000   0.000   0.000   0.000   0.000   0.000   0.000   0.000   0.000   0.000   0.000   0.000   0.000   0.000   0.000
  0.000   0.000   0.000   0.000   0.000   0.000   0.000   0.000   0.000   0.000   2.000   0.000   0.000   0.000   0.000   0.000
  0.000   0.000   0.000   0.000   0.000   0.000   0.000   0.000   0.000   0.000   0.000   0.000   0.000   0.000   0.000   0.000
  0.000   0.000   0.000   0.000   0.000   0.000   0.000   0.000   0.000   0.000   0.000   0.000   0.667   0.000   0.000   0.000
  0.000   0.000   0.000   0.000   0.000   0.000   0.000   0.000   0.000   0.000   0.000   0.000   0.000   0.667   0.000   0.000
  0.000   0.000   0.000   0.000   0.000   0.000   0.000   0.000   0.000   0.000   0.000   0.000   0.000   0.000   0.667   0.000
  0.000   0.000   0.000   0.000   0.000   0.000   0.000   0.000   0.000   0.000   0.000   0.000   0.000   0.000   0.000   0.000
  0.000   0.000   0.000   0.000   0.000   0.000   0.000   0.000   0.000   0.000   0.000   0.000   0.000   0.000   0.000   0.000
  0.000   0.000   0.000   0.000   0.000   0.000   0.000   0.000   0.000   0.000   0.000   0.000   0.000   0.000   0.000   0.000


------------------------ aborting loop because EDIFF is reached ----------------------------------------





 total charge

# of ion       s       p       d       tot
------------------------------------------
    1        1.124   1.379  10.042  12.545
    2        1.124   1.379  10.042  12.545
--------------------------------------------------
tot          2.247   2.759  20.085  25.091

    CHARGE:  cpu time      0.1995: real time      0.1998
    FORLOC:  cpu time      0.0017: real time      0.0017
    FORNL :  cpu time      0.6228: real time      0.6228
    STRESS:  cpu time      1.6441: real time      1.6441
    FORCOR:  cpu time      0.0470: real time      0.0470
    FORHAR:  cpu time      0.0103: real time      0.0103
    OFIELD:  cpu time      0.0002: real time      0.0002

  FORCE on cell =-STRESS in cart. coord.  units (eV):
  Direction    XX          YY          ZZ          XY          YZ          ZX
  --------------------------------------------------------------------------------------
  Alpha Z   143.31628   143.31628   143.31628
  Ewald    -926.71028  -926.71028  -926.71028     0.00000    -0.00000    -0.00000
  Hartree   486.07089   486.07089   486.07089     0.00000     0.00000     0.00000
  E(xc)    -165.22222  -165.22222  -165.22222     0.00001     0.00001     0.00001
  Local       5.92719     5.92719     5.92719     0.00021     0.00021     0.00021
  n-local    61.34530    62.77123    56.53776     2.46822    -1.25975     0.37445
  augment   252.01123   252.01123   252.01123    -0.00016    -0.00017    -0.00017
  Kinetic   150.18224   148.03779   144.89112     4.34449    -0.92809     1.19016
  Fock        0.00000     0.00000     0.00000     0.00000     0.00000     0.00000
  -------------------------------------------------------------------------------------
  Total       3.31490     3.31490     3.31490    -0.00000    -0.00000    -0.00000
  in kB     129.89970   129.89970   129.89970    -0.00000    -0.00000    -0.00000
  external pressure =      129.90 kB  Pullay stress =        0.00 kB


 VOLUME and BASIS-vectors are now :
 -----------------------------------------------------------------------------
  energy-cutoff  :      450.00
  volume of cell :       40.89
      direct lattice vectors                 reciprocal lattice vectors
     0.000000000  2.734310366  2.734310366    -0.182861465  0.182861465  0.182861465
     2.734310366  0.000000000  2.734310366     0.182861465 -0.182861465  0.182861465
     2.734310366  2.734310366  0.000000000     0.182861465  0.182861465 -0.182861465

  length of vectors
     3.866898804  3.866898804  3.866898804     0.316725349  0.316725349  0.316725349


 FORCES acting on ions
    electron-ion (+dipol)            ewald-force                    non-local-force                 convergence-correction
 -----------------------------------------------------------------------------------------------
   -.581E-06 -.581E-06 -.496E-06   0.822E-14 -.477E-13 -.113E-14   -.171E-15 -.116E-16 -.101E-15   -.526E-07 -.526E-07 -.524E-07
   0.581E-06 0.581E-06 0.496E-06   -.740E-14 0.446E-13 0.362E-14   0.182E-15 0.890E-17 0.168E-15   0.526E-07 0.526E-07 0.524E-07
 -----------------------------------------------------------------------------------------------
   0.747E-11 0.104E-11 -.365E-12   0.825E-15 -.316E-14 0.249E-14   0.112E-16 -.269E-17 0.668E-16   -.569E-12 -.545E-12 -.365E-12


 POSITION                                       TOTAL-FORCE (eV/Angst)
 -----------------------------------------------------------------------------------
      4.78504      4.78504      4.78504        -0.000000      0.000000     -0.000000
      0.68358      0.68358      0.68358         0.000000     -0.000000      0.000000
 -----------------------------------------------------------------------------------
    total drift:                                0.000000      0.000000     -0.000000


--------------------------------------------------------------------------------------------------------



  FREE ENERGIE OF THE ION-ELECTRON SYSTEM (eV)
  ---------------------------------------------------
  free  energy   TOTEN  =        -8.79005190 eV

  energy  without entropy=       -8.79005190  energy(sigma->0) =       -8.79005190



--------------------------------------------------------------------------------------------------------


    POTLOK:  cpu time      0.1325: real time      0.1325


--------------------------------------------------------------------------------------------------------


 writing wavefunctions
     LOOP+:  cpu time      5.8069: real time      5.8188
    4ORBIT:  cpu time      0.0000: real time      0.0000



 total charge

# of ion       s       p       d       tot
------------------------------------------
    1        1.124   1.379  10.042  12.545
    2        1.124   1.379  10.042  12.545
--------------------------------------------------
tot          2.247   2.759  20.085  25.091

 BZINTS: Fermi energy:    6.495184;   28.000000 electrons
         Band energy:-0.375237E+03;  BLOECHL correction:   -0.000000

 total amount of memory used by VASP MPI-rank0    63293. kBytes
=======================================================================

   base      :      30000. kBytes
   nonl-proj :       7334. kBytes
   fftplans  :      13127. kBytes
   grid      :       5205. kBytes
   one-center:         31. kBytes
   wavefun   :       7596. kBytes

  
  
 General timing and accounting informations for this job:
 ========================================================
  
                  Total CPU time used (sec):        7.166
                            User time (sec):        6.117
                          System time (sec):        1.049
                         Elapsed time (sec):        7.488
  
                   Maximum memory used (kb):      130016.
                   Average memory used (kb):          N/A
  
                          Minor page faults:       206305
                          Major page faults:          371
                 Voluntary context switches:         1490
