PROCAR new format
# of k-points:   56         # of bands:   18         # of ions:    2

 k-point     1 :    0.00000000 0.00000000 0.00000000     weight = 0.00075131

band     1 # energy  -20.20089629 # occ.  2.00000000

ion      s      p      d    tot
    1  0.000  0.000  0.496  0.497
    2  0.000  0.000  0.496  0.497
tot    0.000  0.001  0.993  0.994

band     2 # energy  -20.20089626 # occ.  2.00000000

ion      s      p      d    tot
    1  0.000  0.000  0.496  0.497
    2  0.000  0.000  0.496  0.497
tot    0.000  0.001  0.993  0.994

band     3 # energy  -20.20089515 # occ.  2.00000000

ion      s      p      d    tot
    1  0.000  0.000  0.496  0.497
    2  0.000  0.000  0.496  0.497
tot    0.000  0.001  0.993  0.994

band     4 # energy  -20.16793045 # occ.  2.00000000

ion      s      p      d    tot
    1  0.000  0.000  0.496  0.496
    2  0.000  0.000  0.496  0.496
tot    0.000  0.000  0.992  0.992

band     5 # energy  -20.16793045 # occ.  2.00000000

ion      s      p      d    tot
    1  0.000  0.000  0.496  0.496
    2  0.000  0.000  0.496  0.496
tot    0.000  0.000  0.992  0.992

band     6 # energy  -19.98139557 # occ.  2.00000000

ion      s      p      d    tot
    1  0.000  0.000  0.498  0.498
    2  0.000  0.000  0.498  0.498
tot    0.000  0.001  0.996  0.996

band     7 # energy  -19.98139554 # occ.  2.00000000

ion      s      p      d    tot
    1  0.000  0.000  0.498  0.498
    2  0.000  0.000  0.498  0.498
tot    0.000  0.001  0.996  0.996

band     8 # energy  -19.98139422 # occ.  2.00000000

ion      s      p      d    tot
    1  0.000  0.000  0.498  0.498
    2  0.000  0.000  0.498  0.498
tot    0.000  0.001  0.996  0.996

band     9 # energy  -19.97126634 # occ.  2.00000000

ion      s      p      d    tot
    1  0.000  0.000  0.499  0.499
    2  0.000  0.000  0.499  0.499
tot    0.000  0.000  0.998  0.998

band    10 # energy  -19.97126634 # occ.  2.00000000

ion      s      p      d    tot
    1  0.000  0.000  0.499  0.499
    2  0.000  0.000  0.499  0.499
tot    0.000  0.000  0.998  0.998

band    11 # energy   -7.87631020 # occ.  2.00000000

ion      s      p      d    tot
    1  0.306  0.000  0.000  0.306
    2  0.306  0.000  0.000  0.306
tot    0.612  0.000  0.000  0.612

band    12 # energy    4.17550024 # occ.  2.00000000

ion      s      p      d    tot
    1  0.428  0.000  0.000  0.428
    2  0.428  0.000  0.000  0.428
tot    0.856  0.000  0.000  0.856

band    13 # energy    4.55218834 # occ.  2.00000000

ion      s      p      d    tot
    1  0.000  0.300  0.034  0.334
    2  0.000  0.300  0.034  0.334
tot    0.000  0.600  0.067  0.668

band    14 # energy    4.55220332 # occ.  2.00000000

ion      s      p      d    tot
    1  0.000  0.300  0.034  0.334
    2  0.000  0.300  0.034  0.334
tot    0.000  0.600  0.067  0.668

band    15 # energy    4.55220336 # occ.  0.00000007

ion      s      p      d    tot
    1  0.000  0.300  0.034  0.334
    2  0.000  0.300  0.034  0.334
tot    0.000  0.600  0.067  0.668

band    16 # energy    7.08882907 # occ.  0.00000000

ion      s      p      d    tot
    1  0.000  0.208  0.043  0.250
    2  0.000  0.208  0.043  0.250
tot    0.000  0.415  0.086  0.501

band    17 # energy    7.08883572 # occ.  0.00000000

ion      s      p      d    tot
    1  0.000  0.208  0.043  0.250
    2  0.000  0.208  0.043  0.250
tot    0.000  0.415  0.086  0.501

band    18 # energy    7.08883580 # occ.  0.00000000

ion      s      p      d    tot
    1  0.000  0.208  0.043  0.250
    2  0.000  0.208  0.043  0.250
tot    0.000  0.415  0.086  0.501


 k-point     2 :    0.09090909 0.00000000 0.00000000     weight = 0.00601052

band     1 # energy  -20.20535194 # occ.  2.00000000

ion      s      p      d    tot
    1  0.000  0.000  0.496  0.497
    2  0.000  0.000  0.496  0.497
tot    0.000  0.001  0.993  0.994

band     2 # energy  -20.20535094 # occ.  2.00000000

ion      s      p      d    tot
    1  0.000  0.000  0.496  0.497
    2  0.000  0.000  0.496  0.497
tot    0.000  0.001  0.993  0.994

band     3 # energy  -20.19975121 # occ.  2.00000000

ion      s      p      d    tot
    1  0.000  0.000  0.496  0.497
    2  0.000  0.000  0.496  0.497
tot    0.000  0.001  0.993  0.994

band     4 # energy  -20.16228744 # occ.  2.00000000

ion      s      p      d    tot
    1  0.000  0.000  0.496  0.496
    2  0.000  0.000  0.496  0.496
tot    0.000  0.000  0.993  0.993

band     5 # energy  -20.16228742 # occ.  2.00000000

ion      s      p      d    tot
    1  0.000  0.000  0.496  0.496
    2  0.000  0.000  0.496  0.496
tot    0.000  0.000  0.993  0.993

band     6 # energy  -19.98886440 # occ.  2.00000000

ion      s      p      d    tot
    1  0.000  0.000  0.498  0.498
    2  0.000  0.000  0.498  0.498
tot    0.000  0.000  0.996  0.996

band     7 # energy  -19.98886379 # occ.  2.00000000

ion      s      p      d    tot
    1  0.000  0.000  0.498  0.498
    2  0.000  0.000  0.498  0.498
tot    0.000  0.000  0.996  0.996

band     8 # energy  -19.98302539 # occ.  2.00000000

ion      s      p      d    tot
    1  0.000  0.000  0.498  0.498
    2  0.000  0.000  0.498  0.498
tot    0.000  0.001  0.995  0.996

band     9 # energy  -19.96497684 # occ.  2.00000000

ion      s      p      d    tot
    1  0.000  0.000  0.499  0.499
    2  0.000  0.000  0.499  0.499
tot    0.000  0.000  0.997  0.997

band    10 # energy  -19.96497626 # occ.  2.00000000

ion      s      p      d    tot
    1  0.000  0.000  0.499  0.499
    2  0.000  0.000  0.499  0.499
tot    0.000  0.000  0.997  0.997

band    11 # energy   -7.77974159 # occ.  2.00000000

ion      s      p      d    tot
    1  0.305  0.001  0.000  0.307
    2  0.305  0.001  0.000  0.307
tot    0.611  0.003  0.000  0.614

band    12 # energy    2.75596516 # occ.  2.00000000

ion      s      p      d    tot
    1  0.224  0.129  0.016  0.370
    2  0.224  0.129  0.016  0.370
tot    0.448  0.259  0.032  0.739

band    13 # energy    4.36979661 # occ.  2.00000000

ion      s      p      d    tot
    1  0.000  0.296  0.031  0.327
    2  0.000  0.296  0.031  0.327
tot    0.000  0.592  0.062  0.654

band    14 # energy    4.36980927 # occ.  2.00000000

ion      s      p      d    tot
    1  0.000  0.296  0.031  0.327
    2  0.000  0.296  0.031  0.327
tot    0.000  0.592  0.062  0.654

band    15 # energy    5.33150901 # occ. -0.00000000

ion      s      p      d    tot
    1  0.190  0.149  0.013  0.352
    2  0.190  0.149  0.013  0.352
tot    0.380  0.298  0.026  0.704

band    16 # energy    7.33467192 # occ.  0.00000000

ion      s      p      d    tot
    1  0.000  0.213  0.045  0.258
    2  0.000  0.213  0.045  0.258
tot    0.000  0.425  0.090  0.515

band    17 # energy    7.33467868 # occ.  0.00000000

ion      s      p      d    tot
    1  0.000  0.213  0.045  0.258
    2  0.000  0.213  0.045  0.258
tot    0.000  0.425  0.090  0.515

band    18 # energy    7.50250621 # occ.  0.00000000

ion      s      p      d    tot
    1  0.026  0.204  0.043  0.273
    2  0.026  0.204  0.043  0.273
tot    0.053  0.407  0.087  0.547


 k-point     3 :    0.18181818 0.00000000 0.00000000     weight = 0.00601052

band     1 # energy  -20.21262685 # occ.  2.00000000

ion      s      p      d    tot
    1  0.000  0.000  0.496  0.497
    2  0.000  0.000  0.496  0.497
tot    0.000  0.001  0.993  0.993

band     2 # energy  -20.21262577 # occ.  2.00000000

ion      s      p      d    tot
    1  0.000  0.000  0.496  0.497
    2  0.000  0.000  0.496  0.497
tot    0.000  0.001  0.993  0.993

band     3 # energy  -20.19662717 # occ.  2.00000000

ion      s      p      d    tot
    1  0.000  0.000  0.496  0.497
    2  0.000  0.000  0.496  0.497
tot    0.000  0.001  0.993  0.994

band     4 # energy  -20.15103514 # occ.  2.00000000

ion      s      p      d    tot
    1  0.000  0.000  0.496  0.497
    2  0.000  0.000  0.496  0.497
tot    0.000  0.000  0.993  0.993

band     5 # energy  -20.15103500 # occ.  2.00000000

ion      s      p      d    tot
    1  0.000  0.000  0.496  0.497
    2  0.000  0.000  0.496  0.497
tot    0.000  0.000  0.993  0.993

band     6 # energy  -19.99891990 # occ.  2.00000000

ion      s      p      d    tot
    1  0.000  0.000  0.498  0.498
    2  0.000  0.000  0.498  0.498
tot    0.000  0.000  0.996  0.996

band     7 # energy  -19.99891966 # occ.  2.00000000

ion      s      p      d    tot
    1  0.000  0.000  0.498  0.498
    2  0.000  0.000  0.498  0.498
tot    0.000  0.000  0.996  0.996

band     8 # energy  -19.98683988 # occ.  2.00000000

ion      s      p      d    tot
    1  0.000  0.000  0.498  0.498
    2  0.000  0.000  0.498  0.498
tot    0.000  0.000  0.995  0.996

band     9 # energy  -19.95712539 # occ.  2.00000000

ion      s      p      d    tot
    1  0.000  0.000  0.499  0.499
    2  0.000  0.000  0.499  0.499
tot    0.000  0.000  0.997  0.997

band    10 # energy  -19.95712441 # occ.  2.00000000

ion      s      p      d    tot
    1  0.000  0.000  0.499  0.499
    2  0.000  0.000  0.499  0.499
tot    0.000  0.000  0.997  0.997

band    11 # energy   -7.49469163 # occ.  2.00000000

ion      s      p      d    tot
    1  0.304  0.005  0.001  0.309
    2  0.304  0.005  0.001  0.309
tot    0.607  0.010  0.001  0.619

band    12 # energy    1.08198626 # occ.  2.00000000

ion      s      p      d    tot
    1  0.204  0.128  0.014  0.346
    2  0.204  0.128  0.014  0.346
tot    0.407  0.257  0.028  0.693

band    13 # energy    3.99569546 # occ.  2.00000000

ion      s      p      d    tot
    1  0.000  0.291  0.026  0.317
    2  0.000  0.291  0.026  0.317
tot    0.000  0.582  0.052  0.634

band    14 # energy    3.99570718 # occ.  2.00000000

ion      s      p      d    tot
    1  0.000  0.291  0.026  0.317
    2  0.000  0.291  0.026  0.317
tot    0.000  0.582  0.052  0.634

band    15 # energy    5.29830989 # occ.  0.00000000

ion      s      p      d    tot
    1  0.184  0.112  0.015  0.311
    2  0.184  0.112  0.015  0.311
tot    0.368  0.223  0.031  0.621

band    16 # energy    7.82882907 # occ.  0.00000000

ion      s      p      d    tot
    1  0.000  0.214  0.049  0.264
    2  0.000  0.214  0.049  0.264
tot    0.000  0.429  0.099  0.528

band    17 # energy    7.82883705 # occ.  0.00000000

ion      s      p      d    tot
    1  0.000  0.214  0.049  0.264
    2  0.000  0.214  0.049  0.264
tot    0.000  0.429  0.099  0.528

band    18 # energy    8.76928927 # occ.  0.00000000

ion      s      p      d    tot
    1  0.070  0.199  0.035  0.304
    2  0.070  0.199  0.035  0.304
tot    0.140  0.398  0.071  0.609


 k-point     4 :    0.27272727 0.00000000 0.00000000     weight = 0.00601052

band     1 # energy  -20.21838675 # occ.  2.00000000

ion      s      p      d    tot
    1  0.000  0.000  0.496  0.497
    2  0.000  0.000  0.496  0.497
tot    0.000  0.001  0.993  0.993

band     2 # energy  -20.21838554 # occ.  2.00000000

ion      s      p      d    tot
    1  0.000  0.000  0.496  0.497
    2  0.000  0.000  0.496  0.497
tot    0.000  0.001  0.993  0.993

band     3 # energy  -20.19232768 # occ.  2.00000000

ion      s      p      d    tot
    1  0.000  0.000  0.496  0.497
    2  0.000  0.000  0.496  0.497
tot    0.000  0.000  0.993  0.994

band     4 # energy  -20.14081976 # occ.  2.00000000

ion      s      p      d    tot
    1  0.000  0.000  0.497  0.497
    2  0.000  0.000  0.497  0.497
tot    0.000  0.000  0.993  0.993

band     5 # energy  -20.14081944 # occ.  2.00000000

ion      s      p      d    tot
    1  0.000  0.000  0.497  0.497
    2  0.000  0.000  0.497  0.497
tot    0.000  0.000  0.993  0.993

band     6 # energy  -20.00692642 # occ.  2.00000000

ion      s      p      d    tot
    1  0.000  0.000  0.498  0.498
    2  0.000  0.000  0.498  0.498
tot    0.000  0.000  0.996  0.996

band     7 # energy  -20.00692637 # occ.  2.00000000

ion      s      p      d    tot
    1  0.000  0.000  0.498  0.498
    2  0.000  0.000  0.498  0.498
tot    0.000  0.000  0.996  0.996

band     8 # energy  -19.99193550 # occ.  2.00000000

ion      s      p      d    tot
    1  0.000  0.000  0.498  0.498
    2  0.000  0.000  0.498  0.498
tot    0.001  0.000  0.995  0.996

band     9 # energy  -19.95147634 # occ.  2.00000000

ion      s      p      d    tot
    1  0.000  0.000  0.499  0.499
    2  0.000  0.000  0.499  0.499
tot    0.000  0.000  0.997  0.997

band    10 # energy  -19.95147502 # occ.  2.00000000

ion      s      p      d    tot
    1  0.000  0.000  0.499  0.499
    2  0.000  0.000  0.499  0.499
tot    0.000  0.000  0.997  0.997

band    11 # energy   -7.03999993 # occ.  2.00000000

ion      s      p      d    tot
    1  0.302  0.011  0.001  0.314
    2  0.302  0.011  0.001  0.314
tot    0.604  0.021  0.003  0.628

band    12 # energy   -0.48781976 # occ.  2.00000000

ion      s      p      d    tot
    1  0.198  0.119  0.010  0.328
    2  0.198  0.119  0.010  0.328
tot    0.397  0.238  0.021  0.655

band    13 # energy    3.63455480 # occ.  2.00000000

ion      s      p      d    tot
    1  0.000  0.290  0.021  0.311
    2  0.000  0.290  0.021  0.311
tot    0.000  0.581  0.041  0.622

band    14 # energy    3.63456593 # occ.  2.00000000

ion      s      p      d    tot
    1  0.000  0.290  0.021  0.311
    2  0.000  0.290  0.021  0.311
tot    0.000  0.581  0.041  0.622

band    15 # energy    5.00225585 # occ.  0.00000000

ion      s      p      d    tot
    1  0.189  0.087  0.019  0.296
    2  0.189  0.087  0.019  0.296
tot    0.379  0.175  0.038  0.591

band    16 # energy    8.19521945 # occ.  0.00000000

ion      s      p      d    tot
    1  0.000  0.198  0.057  0.255
    2  0.000  0.198  0.057  0.255
tot    0.000  0.396  0.113  0.509

band    17 # energy    8.19522779 # occ.  0.00000000

ion      s      p      d    tot
    1  0.000  0.198  0.057  0.255
    2  0.000  0.198  0.057  0.255
tot    0.000  0.396  0.113  0.509

band    18 # energy   10.33029325 # occ.  0.00000000

ion      s      p      d    tot
    1  0.071  0.207  0.028  0.306
    2  0.071  0.207  0.028  0.306
tot    0.141  0.414  0.057  0.613


 k-point     5 :    0.36363636 0.00000000 0.00000000     weight = 0.00601052

band     1 # energy  -20.22165566 # occ.  2.00000000

ion      s      p      d    tot
    1  0.000  0.000  0.496  0.497
    2  0.000  0.000  0.496  0.497
tot    0.000  0.001  0.993  0.993

band     2 # energy  -20.22165433 # occ.  2.00000000

ion      s      p      d    tot
    1  0.000  0.000  0.496  0.497
    2  0.000  0.000  0.496  0.497
tot    0.000  0.001  0.993  0.993

band     3 # energy  -20.18812762 # occ.  2.00000000

ion      s      p      d    tot
    1  0.000  0.000  0.496  0.497
    2  0.000  0.000  0.496  0.497
tot    0.001  0.000  0.993  0.994

band     4 # energy  -20.13421372 # occ.  2.00000000

ion      s      p      d    tot
    1  0.000  0.000  0.497  0.497
    2  0.000  0.000  0.497  0.497
tot    0.000  0.000  0.993  0.993

band     5 # energy  -20.13421327 # occ.  2.00000000

ion      s      p      d    tot
    1  0.000  0.000  0.497  0.497
    2  0.000  0.000  0.497  0.497
tot    0.000  0.000  0.993  0.993

band     6 # energy  -20.01161673 # occ.  2.00000000

ion      s      p      d    tot
    1  0.000  0.000  0.498  0.498
    2  0.000  0.000  0.498  0.498
tot    0.000  0.000  0.996  0.997

band     7 # energy  -20.01161645 # occ.  2.00000000

ion      s      p      d    tot
    1  0.000  0.000  0.498  0.498
    2  0.000  0.000  0.498  0.498
tot    0.000  0.000  0.996  0.997

band     8 # energy  -19.99667128 # occ.  2.00000000

ion      s      p      d    tot
    1  0.000  0.000  0.498  0.498
    2  0.000  0.000  0.498  0.498
tot    0.001  0.000  0.995  0.996

band     9 # energy  -19.94813039 # occ.  2.00000000

ion      s      p      d    tot
    1  0.000  0.000  0.499  0.499
    2  0.000  0.000  0.499  0.499
tot    0.000  0.000  0.997  0.997

band    10 # energy  -19.94812880 # occ.  2.00000000

ion      s      p      d    tot
    1  0.000  0.000  0.499  0.499
    2  0.000  0.000  0.499  0.499
tot    0.000  0.000  0.997  0.997

band    11 # energy   -6.47300729 # occ.  2.00000000

ion      s      p      d    tot
    1  0.304  0.015  0.003  0.322
    2  0.304  0.015  0.003  0.322
tot    0.608  0.031  0.006  0.644

band    12 # energy   -1.82428470 # occ.  2.00000000

ion      s      p      d    tot
    1  0.195  0.110  0.006  0.311
    2  0.195  0.110  0.006  0.311
tot    0.389  0.220  0.012  0.622

band    13 # energy    3.37097853 # occ.  2.00000000

ion      s      p      d    tot
    1  0.000  0.291  0.017  0.308
    2  0.000  0.291  0.017  0.308
tot    0.000  0.582  0.034  0.616

band    14 # energy    3.37098936 # occ.  2.00000000

ion      s      p      d    tot
    1  0.000  0.291  0.017  0.308
    2  0.000  0.291  0.017  0.308
tot    0.000  0.582  0.034  0.616

band    15 # energy    4.75307754 # occ.  0.00000000

ion      s      p      d    tot
    1  0.197  0.072  0.022  0.291
    2  0.197  0.072  0.022  0.291
tot    0.395  0.145  0.043  0.583

band    16 # energy    8.29889593 # occ.  0.00000000

ion      s      p      d    tot
    1  0.000  0.171  0.065  0.236
    2  0.000  0.171  0.065  0.236
tot    0.000  0.343  0.129  0.472

band    17 # energy    8.29890377 # occ.  0.00000000

ion      s      p      d    tot
    1  0.000  0.171  0.065  0.236
    2  0.000  0.171  0.065  0.236
tot    0.000  0.343  0.129  0.472

band    18 # energy   11.67001243 # occ.  0.00000000

ion      s      p      d    tot
    1  0.010  0.171  0.020  0.202
    2  0.010  0.171  0.020  0.202
tot    0.020  0.342  0.041  0.403


 k-point     6 :    0.45454545 0.00000000 0.00000000     weight = 0.00601052

band     1 # energy  -20.22302134 # occ.  2.00000000

ion      s      p      d    tot
    1  0.000  0.000  0.496  0.497
    2  0.000  0.000  0.496  0.497
tot    0.000  0.001  0.993  0.993

band     2 # energy  -20.22301994 # occ.  2.00000000

ion      s      p      d    tot
    1  0.000  0.000  0.496  0.497
    2  0.000  0.000  0.496  0.497
tot    0.000  0.001  0.993  0.993

band     3 # energy  -20.18557948 # occ.  2.00000000

ion      s      p      d    tot
    1  0.000  0.000  0.496  0.497
    2  0.000  0.000  0.496  0.497
tot    0.001  0.000  0.993  0.993

band     4 # energy  -20.13135351 # occ.  2.00000000

ion      s      p      d    tot
    1  0.000  0.000  0.497  0.497
    2  0.000  0.000  0.497  0.497
tot    0.000  0.000  0.993  0.993

band     5 # energy  -20.13135297 # occ.  2.00000000

ion      s      p      d    tot
    1  0.000  0.000  0.497  0.497
    2  0.000  0.000  0.497  0.497
tot    0.000  0.000  0.993  0.993

band     6 # energy  -20.01336277 # occ.  2.00000000

ion      s      p      d    tot
    1  0.000  0.000  0.498  0.498
    2  0.000  0.000  0.498  0.498
tot    0.000  0.000  0.997  0.997

band     7 # energy  -20.01336235 # occ.  2.00000000

ion      s      p      d    tot
    1  0.000  0.000  0.498  0.498
    2  0.000  0.000  0.498  0.498
tot    0.000  0.000  0.997  0.997

band     8 # energy  -19.99956784 # occ.  2.00000000

ion      s      p      d    tot
    1  0.001  0.000  0.498  0.498
    2  0.001  0.000  0.498  0.498
tot    0.001  0.000  0.995  0.996

band     9 # energy  -19.94667402 # occ.  2.00000000

ion      s      p      d    tot
    1  0.000  0.000  0.499  0.499
    2  0.000  0.000  0.499  0.499
tot    0.000  0.000  0.997  0.997

band    10 # energy  -19.94667227 # occ.  2.00000000

ion      s      p      d    tot
    1  0.000  0.000  0.499  0.499
    2  0.000  0.000  0.499  0.499
tot    0.000  0.000  0.997  0.997

band    11 # energy   -5.98167162 # occ.  2.00000000

ion      s      p      d    tot
    1  0.311  0.016  0.005  0.332
    2  0.311  0.016  0.005  0.332
tot    0.623  0.033  0.009  0.665

band    12 # energy   -2.70699251 # occ.  2.00000000

ion      s      p      d    tot
    1  0.187  0.107  0.003  0.296
    2  0.187  0.107  0.003  0.296
tot    0.373  0.214  0.006  0.593

band    13 # energy    3.23450250 # occ.  2.00000000

ion      s      p      d    tot
    1  0.000  0.292  0.015  0.307
    2  0.000  0.292  0.015  0.307
tot    0.000  0.584  0.030  0.614

band    14 # energy    3.23451321 # occ.  2.00000000

ion      s      p      d    tot
    1  0.000  0.292  0.015  0.307
    2  0.000  0.292  0.015  0.307
tot    0.000  0.584  0.030  0.614

band    15 # energy    4.62023120 # occ.  0.00000000

ion      s      p      d    tot
    1  0.202  0.065  0.023  0.290
    2  0.202  0.065  0.023  0.290
tot    0.405  0.130  0.046  0.581

band    16 # energy    8.28317199 # occ.  0.00000000

ion      s      p      d    tot
    1  0.000  0.155  0.069  0.225
    2  0.000  0.155  0.069  0.225
tot    0.000  0.311  0.139  0.449

band    17 # energy    8.28317936 # occ.  0.00000000

ion      s      p      d    tot
    1  0.000  0.155  0.069  0.225
    2  0.000  0.155  0.069  0.225
tot    0.000  0.311  0.139  0.449

band    18 # energy   11.68258764 # occ.  0.00000000

ion      s      p      d    tot
    1  0.004  0.068  0.018  0.090
    2  0.004  0.068  0.018  0.090
tot    0.009  0.136  0.036  0.180


 k-point     7 :    0.09090909 0.09090909 0.00000000     weight = 0.00450789

band     1 # energy  -20.20544325 # occ.  2.00000000

ion      s      p      d    tot
    1  0.000  0.000  0.496  0.497
    2  0.000  0.000  0.496  0.497
tot    0.000  0.001  0.992  0.993

band     2 # energy  -20.20386455 # occ.  2.00000000

ion      s      p      d    tot
    1  0.000  0.000  0.496  0.497
    2  0.000  0.000  0.496  0.497
tot    0.000  0.001  0.993  0.994

band     3 # energy  -20.20386379 # occ.  2.00000000

ion      s      p      d    tot
    1  0.000  0.000  0.496  0.497
    2  0.000  0.000  0.496  0.497
tot    0.000  0.001  0.993  0.994

band     4 # energy  -20.16395222 # occ.  2.00000000

ion      s      p      d    tot
    1  0.000  0.000  0.496  0.496
    2  0.000  0.000  0.496  0.496
tot    0.000  0.000  0.992  0.992

band     5 # energy  -20.15613508 # occ.  2.00000000

ion      s      p      d    tot
    1  0.000  0.000  0.496  0.497
    2  0.000  0.000  0.496  0.497
tot    0.000  0.000  0.993  0.993

band     6 # energy  -20.00138401 # occ.  2.00000000

ion      s      p      d    tot
    1  0.000  0.000  0.498  0.498
    2  0.000  0.000  0.498  0.498
tot    0.000  0.000  0.996  0.996

band     7 # energy  -19.97755597 # occ.  2.00000000

ion      s      p      d    tot
    1  0.000  0.000  0.498  0.498
    2  0.000  0.000  0.498  0.498
tot    0.000  0.001  0.996  0.996

band     8 # energy  -19.97755507 # occ.  2.00000000

ion      s      p      d    tot
    1  0.000  0.000  0.498  0.498
    2  0.000  0.000  0.498  0.498
tot    0.000  0.001  0.996  0.996

band     9 # energy  -19.97518507 # occ.  2.00000000

ion      s      p      d    tot
    1  0.000  0.000  0.499  0.499
    2  0.000  0.000  0.499  0.499
tot    0.000  0.000  0.998  0.998

band    10 # energy  -19.96064408 # occ.  2.00000000

ion      s      p      d    tot
    1  0.000  0.000  0.499  0.499
    2  0.000  0.000  0.499  0.499
tot    0.000  0.000  0.997  0.998

band    11 # energy   -7.74728190 # occ.  2.00000000

ion      s      p      d    tot
    1  0.305  0.002  0.000  0.307
    2  0.305  0.002  0.000  0.307
tot    0.610  0.004  0.000  0.614

band    12 # energy    2.66955830 # occ.  2.00000000

ion      s      p      d    tot
    1  0.255  0.112  0.016  0.383
    2  0.255  0.112  0.016  0.383
tot    0.509  0.224  0.032  0.766

band    13 # energy    4.04868339 # occ.  2.00000000

ion      s      p      d    tot
    1  0.000  0.285  0.028  0.313
    2  0.000  0.285  0.028  0.313
tot    0.000  0.571  0.056  0.626

band    14 # energy    4.04869231 # occ.  2.00000000

ion      s      p      d    tot
    1  0.000  0.285  0.028  0.313
    2  0.000  0.285  0.028  0.313
tot    0.000  0.571  0.056  0.626

band    15 # energy    5.99860347 # occ. -0.00000001

ion      s      p      d    tot
    1  0.171  0.191  0.015  0.377
    2  0.171  0.191  0.015  0.377
tot    0.342  0.383  0.029  0.754

band    16 # energy    6.71593873 # occ.  0.00000000

ion      s      p      d    tot
    1  0.016  0.175  0.040  0.232
    2  0.016  0.175  0.040  0.232
tot    0.032  0.351  0.081  0.464

band    17 # energy    7.75634930 # occ.  0.00000000

ion      s      p      d    tot
    1  0.000  0.223  0.049  0.272
    2  0.000  0.223  0.049  0.272
tot    0.000  0.447  0.097  0.544

band    18 # energy    7.75635512 # occ.  0.00000000

ion      s      p      d    tot
    1  0.000  0.223  0.049  0.272
    2  0.000  0.223  0.049  0.272
tot    0.000  0.447  0.097  0.544


 k-point     8 :    0.18181818 0.09090909 0.00000000     weight = 0.01803156

band     1 # energy  -20.21338675 # occ.  2.00000000

ion      s      p      d    tot
    1  0.000  0.000  0.496  0.497
    2  0.000  0.000  0.496  0.497
tot    0.000  0.001  0.992  0.993

band     2 # energy  -20.20894974 # occ.  2.00000000

ion      s      p      d    tot
    1  0.000  0.000  0.496  0.497
    2  0.000  0.000  0.496  0.497
tot    0.000  0.001  0.993  0.994

band     3 # energy  -20.20062454 # occ.  2.00000000

ion      s      p      d    tot
    1  0.000  0.000  0.496  0.497
    2  0.000  0.000  0.496  0.497
tot    0.000  0.001  0.993  0.993

band     4 # energy  -20.15618679 # occ.  2.00000000

ion      s      p      d    tot
    1  0.000  0.000  0.496  0.496
    2  0.000  0.000  0.496  0.496
tot    0.000  0.000  0.993  0.993

band     5 # energy  -20.14412382 # occ.  2.00000000

ion      s      p      d    tot
    1  0.000  0.000  0.497  0.497
    2  0.000  0.000  0.497  0.497
tot    0.000  0.000  0.993  0.994

band     6 # energy  -20.01443711 # occ.  2.00000000

ion      s      p      d    tot
    1  0.000  0.000  0.498  0.498
    2  0.000  0.000  0.498  0.498
tot    0.000  0.000  0.995  0.996

band     7 # energy  -19.98713849 # occ.  2.00000000

ion      s      p      d    tot
    1  0.000  0.000  0.498  0.498
    2  0.000  0.000  0.498  0.498
tot    0.000  0.000  0.997  0.997

band     8 # energy  -19.97758952 # occ.  2.00000000

ion      s      p      d    tot
    1  0.000  0.000  0.498  0.498
    2  0.000  0.000  0.498  0.498
tot    0.000  0.000  0.996  0.996

band     9 # energy  -19.96620041 # occ.  2.00000000

ion      s      p      d    tot
    1  0.000  0.000  0.498  0.498
    2  0.000  0.000  0.498  0.498
tot    0.000  0.000  0.997  0.997

band    10 # energy  -19.95465043 # occ.  2.00000000

ion      s      p      d    tot
    1  0.000  0.000  0.499  0.499
    2  0.000  0.000  0.499  0.499
tot    0.000  0.000  0.997  0.998

band    11 # energy   -7.52400424 # occ.  2.00000000

ion      s      p      d    tot
    1  0.304  0.005  0.000  0.309
    2  0.304  0.005  0.000  0.309
tot    0.607  0.010  0.001  0.618

band    12 # energy    1.42183599 # occ.  2.00000000

ion      s      p      d    tot
    1  0.229  0.119  0.015  0.363
    2  0.229  0.119  0.015  0.363
tot    0.459  0.237  0.031  0.727

band    13 # energy    3.63491264 # occ.  2.00000000

ion      s      p      d    tot
    1  0.000  0.280  0.023  0.303
    2  0.000  0.280  0.023  0.303
tot    0.000  0.560  0.046  0.606

band    14 # energy    3.67308406 # occ.  2.00000000

ion      s      p      d    tot
    1  0.020  0.261  0.023  0.305
    2  0.020  0.261  0.023  0.305
tot    0.041  0.523  0.047  0.610

band    15 # energy    6.26216429 # occ.  0.00000000

ion      s      p      d    tot
    1  0.138  0.177  0.019  0.334
    2  0.138  0.177  0.019  0.334
tot    0.276  0.355  0.037  0.668

band    16 # energy    6.83898474 # occ.  0.00000000

ion      s      p      d    tot
    1  0.035  0.175  0.038  0.248
    2  0.035  0.175  0.038  0.248
tot    0.070  0.350  0.077  0.496

band    17 # energy    8.35365177 # occ.  0.00000000

ion      s      p      d    tot
    1  0.000  0.228  0.053  0.281
    2  0.000  0.228  0.053  0.281
tot    0.000  0.456  0.106  0.562

band    18 # energy    8.65074035 # occ.  0.00000000

ion      s      p      d    tot
    1  0.027  0.219  0.047  0.293
    2  0.027  0.219  0.047  0.293
tot    0.054  0.439  0.093  0.586


 k-point     9 :    0.27272727 0.09090909 0.00000000     weight = 0.01803156

band     1 # energy  -20.22138579 # occ.  2.00000000

ion      s      p      d    tot
    1  0.000  0.000  0.496  0.497
    2  0.000  0.000  0.496  0.497
tot    0.000  0.001  0.992  0.993

band     2 # energy  -20.21514491 # occ.  2.00000000

ion      s      p      d    tot
    1  0.000  0.000  0.496  0.497
    2  0.000  0.000  0.496  0.497
tot    0.000  0.001  0.993  0.993

band     3 # energy  -20.19405989 # occ.  2.00000000

ion      s      p      d    tot
    1  0.000  0.000  0.496  0.497
    2  0.000  0.000  0.496  0.497
tot    0.000  0.000  0.993  0.993

band     4 # energy  -20.14576855 # occ.  2.00000000

ion      s      p      d    tot
    1  0.000  0.000  0.496  0.497
    2  0.000  0.000  0.496  0.497
tot    0.000  0.000  0.993  0.993

band     5 # energy  -20.13258925 # occ.  2.00000000

ion      s      p      d    tot
    1  0.000  0.000  0.497  0.497
    2  0.000  0.000  0.497  0.497
tot    0.000  0.000  0.993  0.994

band     6 # energy  -20.02428358 # occ.  2.00000000

ion      s      p      d    tot
    1  0.000  0.000  0.498  0.498
    2  0.000  0.000  0.498  0.498
tot    0.000  0.000  0.995  0.996

band     7 # energy  -19.99728419 # occ.  2.00000000

ion      s      p      d    tot
    1  0.000  0.000  0.498  0.498
    2  0.000  0.000  0.498  0.498
tot    0.000  0.000  0.997  0.997

band     8 # energy  -19.98382732 # occ.  2.00000000

ion      s      p      d    tot
    1  0.000  0.000  0.498  0.498
    2  0.000  0.000  0.498  0.498
tot    0.000  0.000  0.996  0.997

band     9 # energy  -19.95785836 # occ.  2.00000000

ion      s      p      d    tot
    1  0.000  0.000  0.498  0.499
    2  0.000  0.000  0.498  0.499
tot    0.000  0.000  0.997  0.997

band    10 # energy  -19.94766233 # occ.  2.00000000

ion      s      p      d    tot
    1  0.000  0.000  0.499  0.499
    2  0.000  0.000  0.499  0.499
tot    0.000  0.000  0.997  0.998

band    11 # energy   -7.12259474 # occ.  2.00000000

ion      s      p      d    tot