PROCAR new format
# of k-points:   56         # of bands:   18         # of ions:    2

 k-point     1 :    0.00000000 0.00000000 0.00000000     weight = 0.00075131

band     1 # energy  -18.94721540 # occ.  2.00000000

ion      s      p      d    tot
    1  0.000  0.001  0.496  0.497
    2  0.000  0.001  0.496  0.497
tot    0.000  0.002  0.993  0.995

band     2 # energy  -18.94721509 # occ.  2.00000000

ion      s      p      d    tot
    1  0.000  0.001  0.496  0.497
    2  0.000  0.001  0.496  0.497
tot    0.000  0.002  0.993  0.995

band     3 # energy  -18.94721289 # occ.  2.00000000

ion      s      p      d    tot
    1  0.000  0.001  0.496  0.497
    2  0.000  0.001  0.496  0.497
tot    0.000  0.002  0.993  0.995

band     4 # energy  -18.90200450 # occ.  2.00000000

ion      s      p      d    tot
    1  0.000  0.000  0.496  0.496
    2  0.000  0.000  0.496  0.496
tot    0.000  0.000  0.992  0.992

band     5 # energy  -18.90200448 # occ.  2.00000000

ion      s      p      d    tot
    1  0.000  0.000  0.496  0.496
    2  0.000  0.000  0.496  0.496
tot    0.000  0.000  0.992  0.992

band     6 # energy  -18.63037824 # occ.  2.00000000

ion      s      p      d    tot
    1  0.000  0.001  0.497  0.498
    2  0.000  0.001  0.497  0.498
tot    0.000  0.001  0.995  0.996

band     7 # energy  -18.63037792 # occ.  2.00000000

ion      s      p      d    tot
    1  0.000  0.001  0.497  0.498
    2  0.000  0.001  0.497  0.498
tot    0.000  0.001  0.995  0.996

band     8 # energy  -18.63037432 # occ.  2.00000000

ion      s      p      d    tot
    1  0.000  0.001  0.497  0.498
    2  0.000  0.001  0.497  0.498
tot    0.000  0.001  0.995  0.996

band     9 # energy  -18.60443461 # occ.  2.00000000

ion      s      p      d    tot
    1  0.000  0.000  0.499  0.499
    2  0.000  0.000  0.499  0.499
tot    0.000  0.000  0.998  0.998

band    10 # energy  -18.60443457 # occ.  2.00000000

ion      s      p      d    tot
    1  0.000  0.000  0.499  0.499
    2  0.000  0.000  0.499  0.499
tot    0.000  0.000  0.998  0.998

band    11 # energy   -7.55463640 # occ.  2.00000000

ion      s      p      d    tot
    1  0.322  0.000  0.000  0.322
    2  0.322  0.000  0.000  0.322
tot    0.645  0.000  0.000  0.645

band    12 # energy    6.03993189 # occ.  2.00000000

ion      s      p      d    tot
    1  0.000  0.326  0.047  0.373
    2  0.000  0.326  0.047  0.373
tot    0.000  0.653  0.093  0.746

band    13 # energy    6.03994556 # occ.  2.00000000

ion      s      p      d    tot
    1  0.000  0.326  0.047  0.373
    2  0.000  0.326  0.047  0.373
tot    0.000  0.653  0.093  0.746

band    14 # energy    6.03994638 # occ.  2.00000000

ion      s      p      d    tot
    1  0.000  0.326  0.047  0.373
    2  0.000  0.326  0.047  0.373
tot    0.000  0.653  0.093  0.746

band    15 # energy    7.04762491 # occ.  0.00000000

ion      s      p      d    tot
    1  0.425  0.000  0.000  0.425
    2  0.425  0.000  0.000  0.425
tot    0.849  0.000  0.000  0.849

band    16 # energy    8.63405766 # occ.  0.00000000

ion      s      p      d    tot
    1  0.000  0.214  0.057  0.271
    2  0.000  0.214  0.057  0.271
tot    0.000  0.428  0.114  0.542

band    17 # energy    8.63405846 # occ.  0.00000000

ion      s      p      d    tot
    1  0.000  0.214  0.057  0.271
    2  0.000  0.214  0.057  0.271
tot    0.000  0.428  0.114  0.542

band    18 # energy    8.63406891 # occ.  0.00000000

ion      s      p      d    tot
    1  0.000  0.214  0.057  0.271
    2  0.000  0.214  0.057  0.271
tot    0.000  0.428  0.114  0.542


 k-point     2 :    0.09090909 0.00000000 0.00000000     weight = 0.00601052

band     1 # energy  -18.95384004 # occ.  2.00000000

ion      s      p      d    tot
    1  0.000  0.001  0.496  0.497
    2  0.000  0.001  0.496  0.497
tot    0.000  0.002  0.993  0.994

band     2 # energy  -18.95383876 # occ.  2.00000000

ion      s      p      d    tot
    1  0.000  0.001  0.496  0.497
    2  0.000  0.001  0.496  0.497
tot    0.000  0.002  0.993  0.994

band     3 # energy  -18.94543967 # occ.  2.00000000

ion      s      p      d    tot
    1  0.000  0.001  0.496  0.497
    2  0.000  0.001  0.496  0.497
tot    0.000  0.002  0.993  0.995

band     4 # energy  -18.89296486 # occ.  2.00000000

ion      s      p      d    tot
    1  0.000  0.000  0.496  0.496
    2  0.000  0.000  0.496  0.496
tot    0.000  0.000  0.992  0.992

band     5 # energy  -18.89296428 # occ.  2.00000000

ion      s      p      d    tot
    1  0.000  0.000  0.496  0.496
    2  0.000  0.000  0.496  0.496
tot    0.000  0.000  0.992  0.992

band     6 # energy  -18.63821099 # occ.  2.00000000

ion      s      p      d    tot
    1  0.000  0.000  0.498  0.498
    2  0.000  0.000  0.498  0.498
tot    0.000  0.001  0.995  0.996

band     7 # energy  -18.63820820 # occ.  2.00000000

ion      s      p      d    tot
    1  0.000  0.000  0.498  0.498
    2  0.000  0.000  0.498  0.498
tot    0.000  0.001  0.995  0.996

band     8 # energy  -18.63244873 # occ.  2.00000000

ion      s      p      d    tot
    1  0.000  0.001  0.497  0.498
    2  0.000  0.001  0.497  0.498
tot    0.000  0.001  0.995  0.996

band     9 # energy  -18.59799076 # occ.  2.00000000

ion      s      p      d    tot
    1  0.000  0.000  0.499  0.499
    2  0.000  0.000  0.499  0.499
tot    0.000  0.000  0.998  0.998

band    10 # energy  -18.59799064 # occ.  2.00000000

ion      s      p      d    tot
    1  0.000  0.000  0.499  0.499
    2  0.000  0.000  0.499  0.499
tot    0.000  0.000  0.998  0.998

band    11 # energy   -7.44348880 # occ.  2.00000000

ion      s      p      d    tot
    1  0.321  0.002  0.000  0.323
    2  0.321  0.002  0.000  0.323
tot    0.642  0.004  0.000  0.646

band    12 # energy    4.51322681 # occ.  2.00000000

ion      s      p      d    tot
    1  0.130  0.209  0.030  0.370
    2  0.130  0.209  0.030  0.370
tot    0.261  0.418  0.060  0.739

band    13 # energy    5.81456366 # occ.  2.00000000

ion      s      p      d    tot
    1  0.000  0.321  0.043  0.363
    2  0.000  0.321  0.043  0.363
tot    0.000  0.642  0.085  0.727

band    14 # energy    5.81457289 # occ.  2.00000000

ion      s      p      d    tot
    1  0.000  0.321  0.043  0.363
    2  0.000  0.321  0.043  0.363
tot    0.000  0.642  0.085  0.727

band    15 # energy    7.62040898 # occ.  0.00000000

ion      s      p      d    tot
    1  0.245  0.098  0.017  0.360
    2  0.245  0.098  0.017  0.360
tot    0.490  0.196  0.034  0.721

band    16 # energy    8.93052434 # occ.  0.00000000

ion      s      p      d    tot
    1  0.000  0.220  0.060  0.281
    2  0.000  0.220  0.060  0.281
tot    0.000  0.441  0.120  0.561

band    17 # energy    8.93052938 # occ.  0.00000000

ion      s      p      d    tot
    1  0.000  0.220  0.060  0.281
    2  0.000  0.220  0.060  0.281
tot    0.000  0.441  0.120  0.561

band    18 # energy    9.32000260 # occ.  0.00000000

ion      s      p      d    tot
    1  0.064  0.204  0.051  0.319
    2  0.064  0.204  0.051  0.319
tot    0.128  0.407  0.102  0.638


 k-point     3 :    0.18181818 0.00000000 0.00000000     weight = 0.00601052

band     1 # energy  -18.96455080 # occ.  2.00000000

ion      s      p      d    tot
    1  0.000  0.001  0.496  0.497
    2  0.000  0.001  0.496  0.497
tot    0.000  0.001  0.993  0.994

band     2 # energy  -18.96455043 # occ.  2.00000000

ion      s      p      d    tot
    1  0.000  0.001  0.496  0.497
    2  0.000  0.001  0.496  0.497
tot    0.000  0.001  0.993  0.994

band     3 # energy  -18.94091933 # occ.  2.00000000

ion      s      p      d    tot
    1  0.000  0.001  0.496  0.497
    2  0.000  0.001  0.496  0.497
tot    0.000  0.001  0.993  0.995

band     4 # energy  -18.87602215 # occ.  2.00000000

ion      s      p      d    tot
    1  0.000  0.000  0.496  0.496
    2  0.000  0.000  0.496  0.496
tot    0.000  0.000  0.993  0.993

band     5 # energy  -18.87602032 # occ.  2.00000000

ion      s      p      d    tot
    1  0.000  0.000  0.496  0.496
    2  0.000  0.000  0.496  0.496
tot    0.000  0.000  0.993  0.993

band     6 # energy  -18.65111997 # occ.  2.00000000

ion      s      p      d    tot
    1  0.000  0.000  0.498  0.498
    2  0.000  0.000  0.498  0.498
tot    0.000  0.001  0.996  0.996

band     7 # energy  -18.65111715 # occ.  2.00000000

ion      s      p      d    tot
    1  0.000  0.000  0.498  0.498
    2  0.000  0.000  0.498  0.498
tot    0.000  0.001  0.996  0.996

band     8 # energy  -18.63800141 # occ.  2.00000000

ion      s      p      d    tot
    1  0.000  0.000  0.497  0.498
    2  0.000  0.000  0.497  0.498
tot    0.001  0.001  0.994  0.996

band     9 # energy  -18.58818176 # occ.  2.00000000

ion      s      p      d    tot
    1  0.000  0.000  0.499  0.499
    2  0.000  0.000  0.499  0.499
tot    0.000  0.000  0.997  0.998

band    10 # energy  -18.58818163 # occ.  2.00000000

ion      s      p      d    tot
    1  0.000  0.000  0.499  0.499
    2  0.000  0.000  0.499  0.499
tot    0.000  0.000  0.997  0.998

band    11 # energy   -7.11429920 # occ.  2.00000000

ion      s      p      d    tot
    1  0.318  0.007  0.001  0.326
    2  0.318  0.007  0.001  0.326
tot    0.636  0.014  0.001  0.651

band    12 # energy    2.54731646 # occ.  2.00000000

ion      s      p      d    tot
    1  0.153  0.177  0.022  0.352
    2  0.153  0.177  0.022  0.352
tot    0.306  0.353  0.044  0.703

band    13 # energy    5.36795266 # occ.  2.00000000

ion      s      p      d    tot
    1  0.000  0.316  0.035  0.351
    2  0.000  0.316  0.035  0.351
tot    0.000  0.633  0.070  0.703

band    14 # energy    5.36795735 # occ.  2.00000000

ion      s      p      d    tot
    1  0.000  0.316  0.035  0.351
    2  0.000  0.316  0.035  0.351
tot    0.000  0.633  0.070  0.703

band    15 # energy    7.36279030 # occ.  0.00000000

ion      s      p      d    tot
    1  0.204  0.088  0.028  0.319
    2  0.204  0.088  0.028  0.319
tot    0.407  0.176  0.056  0.639

band    16 # energy    9.49780303 # occ.  0.00000000

ion      s      p      d    tot
    1  0.000  0.221  0.067  0.288
    2  0.000  0.221  0.067  0.288
tot    0.000  0.442  0.133  0.575

band    17 # energy    9.49780728 # occ.  0.00000000

ion      s      p      d    tot
    1  0.000  0.221  0.067  0.288
    2  0.000  0.221  0.067  0.288
tot    0.000  0.442  0.133  0.575

band    18 # energy   10.99200029 # occ.  0.00000000

ion      s      p      d    tot
    1  0.102  0.197  0.037  0.336
    2  0.102  0.197  0.037  0.336
tot    0.203  0.393  0.075  0.671


 k-point     4 :    0.27272727 0.00000000 0.00000000     weight = 0.00601052

band     1 # energy  -18.97237431 # occ.  2.00000000

ion      s      p      d    tot
    1  0.000  0.001  0.496  0.497
    2  0.000  0.001  0.496  0.497
tot    0.000  0.001  0.993  0.994

band     2 # energy  -18.97237416 # occ.  2.00000000

ion      s      p      d    tot
    1  0.000  0.001  0.496  0.497
    2  0.000  0.001  0.496  0.497
tot    0.000  0.001  0.993  0.994

band     3 # energy  -18.93477920 # occ.  2.00000000

ion      s      p      d    tot
    1  0.000  0.000  0.496  0.497
    2  0.000  0.000  0.496  0.497
tot    0.001  0.001  0.993  0.994

band     4 # energy  -18.86099734 # occ.  2.00000000

ion      s      p      d    tot
    1  0.000  0.000  0.496  0.496
    2  0.000  0.000  0.496  0.496
tot    0.000  0.000  0.993  0.993

band     5 # energy  -18.86099426 # occ.  2.00000000

ion      s      p      d    tot
    1  0.000  0.000  0.496  0.496
    2  0.000  0.000  0.496  0.496
tot    0.000  0.000  0.993  0.993

band     6 # energy  -18.66126310 # occ.  2.00000000

ion      s      p      d    tot
    1  0.000  0.000  0.498  0.498
    2  0.000  0.000  0.498  0.498
tot    0.000  0.000  0.996  0.996

band     7 # energy  -18.66126014 # occ.  2.00000000

ion      s      p      d    tot
    1  0.000  0.000  0.498  0.498
    2  0.000  0.000  0.498  0.498
tot    0.000  0.000  0.996  0.996

band     8 # energy  -18.64529263 # occ.  2.00000000

ion      s      p      d    tot
    1  0.001  0.000  0.497  0.498
    2  0.001  0.000  0.497  0.498
tot    0.001  0.000  0.994  0.996

band     9 # energy  -18.58071125 # occ.  2.00000000

ion      s      p      d    tot
    1  0.000  0.000  0.499  0.499
    2  0.000  0.000  0.499  0.499
tot    0.000  0.001  0.997  0.998

band    10 # energy  -18.58071118 # occ.  2.00000000

ion      s      p      d    tot
    1  0.000  0.000  0.499  0.499
    2  0.000  0.000  0.499  0.499
tot    0.000  0.001  0.997  0.998

band    11 # energy   -6.58484793 # occ.  2.00000000

ion      s      p      d    tot
    1  0.314  0.014  0.002  0.331
    2  0.314  0.014  0.002  0.331
tot    0.629  0.028  0.004  0.661

band    12 # energy    0.71269926 # occ.  2.00000000

ion      s      p      d    tot
    1  0.165  0.155  0.015  0.335
    2  0.165  0.155  0.015  0.335
tot    0.329  0.311  0.029  0.670

band    13 # energy    4.94748820 # occ.  2.00000000

ion      s      p      d    tot
    1  0.000  0.317  0.028  0.345
    2  0.000  0.317  0.028  0.345
tot    0.000  0.633  0.056  0.690

band    14 # energy    4.94749008 # occ.  2.00000000

ion      s      p      d    tot
    1  0.000  0.317  0.028  0.345
    2  0.000  0.317  0.028  0.345
tot    0.000  0.633  0.056  0.690

band    15 # energy    6.99423502 # occ.  0.00000000

ion      s      p      d    tot
    1  0.210  0.067  0.033  0.311
    2  0.210  0.067  0.033  0.311
tot    0.421  0.135  0.067  0.622

band    16 # energy    9.86334554 # occ.  0.00000000

ion      s      p      d    tot
    1  0.000  0.198  0.077  0.275
    2  0.000  0.198  0.077  0.275
tot    0.000  0.396  0.154  0.549

band    17 # energy    9.86335850 # occ.  0.00000000

ion      s      p      d    tot
    1  0.000  0.198  0.077  0.275
    2  0.000  0.198  0.077  0.275
tot    0.000  0.396  0.154  0.549

band    18 # energy   12.72357324 # occ.  0.00000000

ion      s      p      d    tot
    1  0.075  0.210  0.029  0.314
    2  0.075  0.210  0.029  0.314
tot    0.150  0.419  0.058  0.628


 k-point     5 :    0.36363636 0.00000000 0.00000000     weight = 0.00601052

band     1 # energy  -18.97635290 # occ.  2.00000000

ion      s      p      d    tot
    1  0.000  0.001  0.496  0.497
    2  0.000  0.001  0.496  0.497
tot    0.000  0.001  0.993  0.994

band     2 # energy  -18.97635227 # occ.  2.00000000

ion      s      p      d    tot
    1  0.000  0.001  0.496  0.497
    2  0.000  0.001  0.496  0.497
tot    0.000  0.001  0.993  0.994

band     3 # energy  -18.92934092 # occ.  2.00000000

ion      s      p      d    tot
    1  0.001  0.000  0.496  0.497
    2  0.001  0.000  0.496  0.497
tot    0.001  0.000  0.992  0.994

band     4 # energy  -18.85181788 # occ.  2.00000000

ion      s      p      d    tot
    1  0.000  0.000  0.496  0.496
    2  0.000  0.000  0.496  0.496
tot    0.000  0.000  0.993  0.993

band     5 # energy  -18.85181405 # occ.  2.00000000

ion      s      p      d    tot
    1  0.000  0.000  0.496  0.496
    2  0.000  0.000  0.496  0.496
tot    0.000  0.000  0.993  0.993

band     6 # energy  -18.66649335 # occ.  2.00000000

ion      s      p      d    tot
    1  0.000  0.000  0.498  0.498
    2  0.000  0.000  0.498  0.498
tot    0.000  0.000  0.996  0.997

band     7 # energy  -18.66649030 # occ.  2.00000000

ion      s      p      d    tot
    1  0.000  0.000  0.498  0.498
    2  0.000  0.000  0.498  0.498
tot    0.000  0.000  0.996  0.997

band     8 # energy  -18.65230900 # occ.  2.00000000

ion      s      p      d    tot
    1  0.001  0.000  0.497  0.498
    2  0.001  0.000  0.497  0.498
tot    0.002  0.000  0.994  0.996

band     9 # energy  -18.57647303 # occ.  2.00000000

ion      s      p      d    tot
    1  0.000  0.000  0.499  0.499
    2  0.000  0.000  0.499  0.499
tot    0.000  0.001  0.997  0.998

band    10 # energy  -18.57647270 # occ.  2.00000000

ion      s      p      d    tot
    1  0.000  0.000  0.499  0.499
    2  0.000  0.000  0.499  0.499
tot    0.000  0.001  0.997  0.998

band    11 # energy   -5.91245761 # occ.  2.00000000

ion      s      p      d    tot
    1  0.315  0.021  0.004  0.339
    2  0.315  0.021  0.004  0.339
tot    0.629  0.041  0.008  0.678

band    12 # energy   -0.85493926 # occ.  2.00000000

ion      s      p      d    tot
    1  0.170  0.141  0.008  0.319
    2  0.170  0.141  0.008  0.319
tot    0.339  0.281  0.017  0.637

band    13 # energy    4.64450532 # occ.  2.00000000

ion      s      p      d    tot
    1  0.000  0.319  0.023  0.342
    2  0.000  0.319  0.023  0.342
tot    0.000  0.638  0.045  0.683

band    14 # energy    4.64450677 # occ.  2.00000000

ion      s      p      d    tot
    1  0.000  0.319  0.023  0.342
    2  0.000  0.319  0.023  0.342
tot    0.000  0.638  0.045  0.683

band    15 # energy    6.71993518 # occ.  0.00000000

ion      s      p      d    tot
    1  0.220  0.053  0.037  0.310
    2  0.220  0.053  0.037  0.310
tot    0.440  0.106  0.074  0.620

band    16 # energy    9.90477223 # occ.  0.00000000

ion      s      p      d    tot
    1  0.000  0.166  0.087  0.253
    2  0.000  0.166  0.087  0.253
tot    0.000  0.332  0.175  0.506

band    17 # energy    9.90478973 # occ.  0.00000000

ion      s      p      d    tot
    1  0.000  0.166  0.087  0.253
    2  0.000  0.166  0.087  0.253
tot    0.000  0.332  0.175  0.506

band    18 # energy   13.43227156 # occ.  0.00000000

ion      s      p      d    tot
    1  0.003  0.086  0.021  0.110
    2  0.003  0.086  0.021  0.110
tot    0.006  0.173  0.041  0.220


 k-point     6 :    0.45454545 0.00000000 0.00000000     weight = 0.00601052

band     1 # energy  -18.97784488 # occ.  2.00000000

ion      s      p      d    tot
    1  0.000  0.001  0.497  0.497
    2  0.000  0.001  0.497  0.497
tot    0.000  0.001  0.993  0.994

band     2 # energy  -18.97784426 # occ.  2.00000000

ion      s      p      d    tot
    1  0.000  0.001  0.497  0.497
    2  0.000  0.001  0.497  0.497
tot    0.000  0.001  0.993  0.994

band     3 # energy  -18.92603133 # occ.  2.00000000

ion      s      p      d    tot
    1  0.001  0.000  0.496  0.497
    2  0.001  0.000  0.496  0.497
tot    0.001  0.000  0.992  0.994

band     4 # energy  -18.84808182 # occ.  2.00000000

ion      s      p      d    tot
    1  0.000  0.000  0.496  0.496
    2  0.000  0.000  0.496  0.496
tot    0.000  0.000  0.992  0.993

band     5 # energy  -18.84807783 # occ.  2.00000000

ion      s      p      d    tot
    1  0.000  0.000  0.496  0.496
    2  0.000  0.000  0.496  0.496
tot    0.000  0.000  0.992  0.993

band     6 # energy  -18.66801868 # occ.  2.00000000

ion      s      p      d    tot
    1  0.000  0.000  0.498  0.498
    2  0.000  0.000  0.498  0.498
tot    0.000  0.000  0.997  0.997

band     7 # energy  -18.66801534 # occ.  2.00000000

ion      s      p      d    tot
    1  0.000  0.000  0.498  0.498
    2  0.000  0.000  0.498  0.498
tot    0.000  0.000  0.997  0.997

band     8 # energy  -18.65643927 # occ.  2.00000000

ion      s      p      d    tot
    1  0.001  0.000  0.497  0.498
    2  0.001  0.000  0.497  0.498
tot    0.002  0.000  0.994  0.996

band     9 # energy  -18.57486208 # occ.  2.00000000

ion      s      p      d    tot
    1  0.000  0.000  0.498  0.499
    2  0.000  0.000  0.498  0.499
tot    0.000  0.001  0.997  0.997

band    10 # energy  -18.57486081 # occ.  2.00000000

ion      s      p      d    tot
    1  0.000  0.000  0.498  0.499
    2  0.000  0.000  0.498  0.499
tot    0.000  0.001  0.997  0.997

band    11 # energy   -5.30665554 # occ.  2.00000000

ion      s      p      d    tot
    1  0.323  0.022  0.007  0.352
    2  0.323  0.022  0.007  0.352
tot    0.647  0.043  0.014  0.704

band    12 # energy   -1.91463587 # occ.  2.00000000

ion      s      p      d    tot
    1  0.163  0.136  0.003  0.302
    2  0.163  0.136  0.003  0.302
tot    0.326  0.272  0.006  0.604

band    13 # energy    4.48855206 # occ.  2.00000000

ion      s      p      d    tot
    1  0.000  0.321  0.020  0.340
    2  0.000  0.321  0.020  0.340
tot    0.000  0.641  0.040  0.681

band    14 # energy    4.48855406 # occ.  2.00000000

ion      s      p      d    tot
    1  0.000  0.321  0.020  0.340
    2  0.000  0.321  0.020  0.340
tot    0.000  0.641  0.040  0.681

band    15 # energy    6.57880951 # occ.  0.00000000

ion      s      p      d    tot
    1  0.226  0.046  0.039  0.310
    2  0.226  0.046  0.039  0.310
tot    0.452  0.091  0.078  0.621

band    16 # energy    9.84333372 # occ.  0.00000000

ion      s      p      d    tot
    1  0.000  0.148  0.093  0.241
    2  0.000  0.148  0.093  0.241
tot    0.000  0.296  0.186  0.482

band    17 # energy    9.84335263 # occ.  0.00000000

ion      s      p      d    tot
    1  0.000  0.148  0.093  0.241
    2  0.000  0.148  0.093  0.241
tot    0.000  0.296  0.186  0.482

band    18 # energy   13.23091543 # occ.  0.00000000

ion      s      p      d    tot
    1  0.008  0.051  0.021  0.079
    2  0.008  0.051  0.021  0.079
tot    0.015  0.102  0.042  0.159


 k-point     7 :    0.09090909 0.09090909 0.00000000     weight = 0.00450789

band     1 # energy  -18.95483195 # occ.  2.00000000

ion      s      p      d    tot
    1  0.000  0.001  0.496  0.497
    2  0.000  0.001  0.496  0.497
tot    0.000  0.001  0.992  0.994

band     2 # energy  -18.95097900 # occ.  2.00000000

ion      s      p      d    tot
    1  0.000  0.001  0.496  0.497
    2  0.000  0.001  0.496  0.497
tot    0.000  0.002  0.993  0.995

band     3 # energy  -18.95097749 # occ.  2.00000000

ion      s      p      d    tot
    1  0.000  0.001  0.496  0.497
    2  0.000  0.001  0.496  0.497
tot    0.000  0.002  0.993  0.995

band     4 # energy  -18.89565554 # occ.  2.00000000

ion      s      p      d    tot
    1  0.000  0.000  0.496  0.496
    2  0.000  0.000  0.496  0.496
tot    0.000  0.000  0.992  0.992

band     5 # energy  -18.88342305 # occ.  2.00000000

ion      s      p      d    tot
    1  0.000  0.000  0.496  0.496
    2  0.000  0.000  0.496  0.496
tot    0.000  0.000  0.992  0.993

band     6 # energy  -18.65724089 # occ.  2.00000000

ion      s      p      d    tot
    1  0.000  0.000  0.497  0.498
    2  0.000  0.000  0.497  0.498
tot    0.000  0.001  0.995  0.996

band     7 # energy  -18.62402882 # occ.  2.00000000

ion      s      p      d    tot
    1  0.000  0.001  0.497  0.498
    2  0.000  0.001  0.497  0.498
tot    0.000  0.001  0.995  0.996

band     8 # energy  -18.62402625 # occ.  2.00000000

ion      s      p      d    tot
    1  0.000  0.001  0.497  0.498
    2  0.000  0.001  0.497  0.498
tot    0.000  0.001  0.995  0.996

band     9 # energy  -18.61013300 # occ.  2.00000000

ion      s      p      d    tot
    1  0.000  0.000  0.499  0.499
    2  0.000  0.000  0.499  0.499
tot    0.000  0.000  0.998  0.998

band    10 # energy  -18.59142877 # occ.  2.00000000

ion      s      p      d    tot
    1  0.000  0.000  0.499  0.499
    2  0.000  0.000  0.499  0.499
tot    0.000  0.000  0.998  0.998

band    11 # energy   -7.40620466 # occ.  2.00000000

ion      s      p      d    tot
    1  0.321  0.002  0.000  0.323
    2  0.321  0.002  0.000  0.323
tot    0.641  0.005  0.000  0.647

band    12 # energy    4.56681963 # occ.  2.00000000

ion      s      p      d    tot
    1  0.178  0.184  0.030  0.391
    2  0.178  0.184  0.030  0.391
tot    0.355  0.368  0.060  0.783

band    13 # energy    5.41394086 # occ.  2.00000000

ion      s      p      d    tot
    1  0.000  0.308  0.038  0.346
    2  0.000  0.308  0.038  0.346
tot    0.000  0.616  0.076  0.692

band    14 # energy    5.41394842 # occ.  2.00000000

ion      s      p      d    tot
    1  0.000  0.308  0.038  0.346
    2  0.000  0.308  0.038  0.346
tot    0.000  0.616  0.076  0.692

band    15 # energy    8.20806763 # occ.  0.00000000

ion      s      p      d    tot
    1  0.018  0.178  0.054  0.251
    2  0.018  0.178  0.054  0.251
tot    0.037  0.357  0.108  0.502

band    16 # energy    8.43758752 # occ.  0.00000000

ion      s      p      d    tot
    1  0.244  0.147  0.012  0.402
    2  0.244  0.147  0.012  0.402
tot    0.487  0.293  0.024  0.805

band    17 # energy    9.44637008 # occ.  0.00000000

ion      s      p      d    tot
    1  0.000  0.233  0.066  0.299
    2  0.000  0.233  0.066  0.299
tot    0.000  0.466  0.132  0.597

band    18 # energy    9.44637345 # occ.  0.00000000

ion      s      p      d    tot
    1  0.000  0.233  0.066  0.299
    2  0.000  0.233  0.066  0.299
tot    0.000  0.466  0.132  0.597


 k-point     8 :    0.18181818 0.09090909 0.00000000     weight = 0.01803156

band     1 # energy  -18.96623924 # occ.  2.00000000

ion      s      p      d    tot
    1  0.000  0.001  0.496  0.497
    2  0.000  0.001  0.496  0.497
tot    0.000  0.001  0.992  0.994

band     2 # energy  -18.95838501 # occ.  2.00000000

ion      s      p      d    tot
    1  0.000  0.001  0.496  0.497
    2  0.000  0.001  0.496  0.497
tot    0.000  0.002  0.993  0.994

band     3 # energy  -18.94711571 # occ.  2.00000000

ion      s      p      d    tot
    1  0.000  0.001  0.496  0.497
    2  0.000  0.001  0.496  0.497
tot    0.000  0.001  0.993  0.994

band     4 # energy  -18.88384443 # occ.  2.00000000

ion      s      p      d    tot
    1  0.000  0.000  0.496  0.496
    2  0.000  0.000  0.496  0.496
tot    0.000  0.000  0.992  0.992

band     5 # energy  -18.86523499 # occ.  2.00000000

ion      s      p      d    tot
    1  0.000  0.000  0.496  0.497
    2  0.000  0.000  0.496  0.497
tot    0.000  0.001  0.993  0.994

band     6 # energy  -18.67630737 # occ.  2.00000000

ion      s      p      d    tot
    1  0.000  0.000  0.497  0.498
    2  0.000  0.000  0.497  0.498
tot    0.000  0.001  0.995  0.996

band     7 # energy  -18.63198189 # occ.  2.00000000

ion      s      p      d    tot
    1  0.000  0.000  0.498  0.498
    2  0.000  0.000  0.498  0.498
tot    0.000  0.001  0.996  0.997

band     8 # energy  -18.62311242 # occ.  2.00000000

ion      s      p      d    tot
    1  0.000  0.000  0.498  0.498
    2  0.000  0.000  0.498  0.498
tot    0.000  0.001  0.995  0.996

band     9 # energy  -18.60301695 # occ.  2.00000000

ion      s      p      d    tot
    1  0.000  0.000  0.498  0.499
    2  0.000  0.000  0.498  0.499
tot    0.000  0.001  0.997  0.997

band    10 # energy  -18.58354665 # occ.  2.00000000

ion      s      p      d    tot
    1  0.000  0.000  0.499  0.499
    2  0.000  0.000  0.499  0.499
tot    0.000  0.000  0.998  0.998

band    11 # energy   -7.14876289 # occ.  2.00000000

ion      s      p      d    tot
    1  0.318  0.007  0.001  0.325
    2  0.318  0.007  0.001  0.325
tot    0.636  0.013  0.001  0.650

band    12 # energy    3.04014916 # occ.  2.00000000

ion      s      p      d    tot
    1  0.174  0.172  0.024  0.370
    2  0.174  0.172  0.024  0.370
tot    0.347  0.344  0.049  0.740

band    13 # energy    4.92251634 # occ.  2.00000000

ion      s      p      d    tot
    1  0.000  0.303  0.031  0.334
    2  0.000  0.303  0.031  0.334
tot    0.000  0.606  0.063  0.669

band    14 # energy    5.03981914 # occ.  2.00000000

ion      s      p      d    tot
    1  0.028  0.281  0.033  0.341
    2  0.028  0.281  0.033  0.341
tot    0.056  0.562  0.066  0.683

band    15 # energy    8.18302985 # occ.  0.00000000

ion      s      p      d    tot
    1  0.061  0.166  0.050  0.277
    2  0.061  0.166  0.050  0.277
tot    0.121  0.331  0.101  0.554

band    16 # energy    8.67164611 # occ.  0.00000000

ion      s      p      d    tot
    1  0.130  0.171  0.031  0.333
    2  0.130  0.171  0.031  0.333
tot    0.260  0.343  0.063  0.665

band    17 # energy   10.13866111 # occ.  0.00000000

ion      s      p      d    tot
    1  0.000  0.236  0.072  0.308
    2  0.000  0.236  0.072  0.308
tot    0.000  0.473  0.144  0.617

band    18 # energy   10.64727262 # occ.  0.00000000

ion      s      p      d    tot
    1  0.052  0.213  0.056  0.320
    2  0.052  0.213  0.056  0.320
tot    0.103  0.426  0.111  0.641


 k-point     9 :    0.27272727 0.09090909 0.00000000     weight = 0.01803156

band     1 # energy  -18.97748801 # occ.  2.00000000

ion      s      p      d    tot
    1  0.000  0.001  0.496  0.497
    2  0.000  0.001  0.496  0.497
tot    0.000  0.001  0.992  0.994

band     2 # energy  -18.96697090 # occ.  2.00000000

ion      s      p      d    tot
    1  0.000  0.001  0.496  0.497
    2  0.000  0.001  0.496  0.497
tot    0.000  0.001  0.993  0.994

band     3 # energy  -18.93774912 # occ.  2.00000000

ion      s      p      d    tot
    1  0.000  0.000  0.496  0.497
    2  0.000  0.000  0.496  0.497
tot    0.001  0.001  0.992  0.994

band     4 # energy  -18.86838398 # occ.  2.00000000

ion      s      p      d    tot
    1  0.000  0.000  0.496  0.496
    2  0.000  0.000  0.496  0.496
tot    0.000  0.000  0.992  0.993

band     5 # energy  -18.84807500 # occ.  2.00000000

ion      s      p      d    tot
    1  0.000  0.000  0.497  0.497
    2  0.000  0.000  0.497  0.497
tot    0.000  0.001  0.993  0.994

band     6 # energy  -18.69018857 # occ.  2.00000000

ion      s      p      d    tot
    1  0.000  0.000  0.497  0.498
    2  0.000  0.000  0.497  0.498
tot    0.000  0.001  0.994  0.995

band     7 # energy  -18.64559696 # occ.  2.00000000

ion      s      p      d    tot
    1  0.000  0.000  0.498  0.499
    2  0.000  0.000  0.498  0.499
tot    0.000  0.000  0.997  0.997

band     8 # energy  -18.63119844 # occ.  2.00000000

ion      s      p      d    tot
    1  0.000  0.000  0.498  0.498
    2  0.000  0.000  0.498  0.498
tot    0.001  0.001  0.995  0.996

band     9 # energy  -18.59156186 # occ.  2.00000000

ion      s      p      d    tot
    1  0.000  0.000  0.498  0.499
    2  0.000  0.000  0.498  0.499
tot    0.000  0.001  0.997  0.997

band    10 # energy  -18.57439040 # occ.  2.00000000

ion      s      p      d    tot
    1  0.000  0.000  0.499  0.499
    2  0.000  0.000  0.499  0.499
tot    0.000  0.000  0.998  0.998

band    11 # energy   -6.68303122 # occ.  2.00000000

ion      s      p      d    tot