PROCAR new format
# of k-points:   56         # of bands:   18         # of ions:    2

 k-point     1 :    0.00000000 0.00000000 0.00000000     weight = 0.00075131

band     1 # energy  -18.94706385 # occ.  2.00000000

ion      s      p      d    tot
    1  0.000  0.001  0.496  0.497
    2  0.000  0.001  0.496  0.497
tot    0.000  0.002  0.993  0.995

band     2 # energy  -18.94706383 # occ.  2.00000000

ion      s      p      d    tot
    1  0.000  0.001  0.496  0.497
    2  0.000  0.001  0.496  0.497
tot    0.000  0.002  0.993  0.995

band     3 # energy  -18.94706311 # occ.  2.00000000

ion      s      p      d    tot
    1  0.000  0.001  0.496  0.497
    2  0.000  0.001  0.496  0.497
tot    0.000  0.002  0.993  0.995

band     4 # energy  -18.90185756 # occ.  2.00000000

ion      s      p      d    tot
    1  0.000  0.000  0.496  0.496
    2  0.000  0.000  0.496  0.496
tot    0.000  0.000  0.992  0.992

band     5 # energy  -18.90185755 # occ.  2.00000000

ion      s      p      d    tot
    1  0.000  0.000  0.496  0.496
    2  0.000  0.000  0.496  0.496
tot    0.000  0.000  0.992  0.992

band     6 # energy  -18.63021251 # occ.  2.00000000

ion      s      p      d    tot
    1  0.000  0.001  0.497  0.498
    2  0.000  0.001  0.497  0.498
tot    0.000  0.001  0.995  0.996

band     7 # energy  -18.63021249 # occ.  2.00000000

ion      s      p      d    tot
    1  0.000  0.001  0.497  0.498
    2  0.000  0.001  0.497  0.498
tot    0.000  0.001  0.995  0.996

band     8 # energy  -18.63021164 # occ.  2.00000000

ion      s      p      d    tot
    1  0.000  0.001  0.497  0.498
    2  0.000  0.001  0.497  0.498
tot    0.000  0.001  0.995  0.996

band     9 # energy  -18.60427093 # occ.  2.00000000

ion      s      p      d    tot
    1  0.000  0.000  0.499  0.499
    2  0.000  0.000  0.499  0.499
tot    0.000  0.000  0.998  0.998

band    10 # energy  -18.60427092 # occ.  2.00000000

ion      s      p      d    tot
    1  0.000  0.000  0.499  0.499
    2  0.000  0.000  0.499  0.499
tot    0.000  0.000  0.998  0.998

band    11 # energy   -7.55458805 # occ.  2.00000000

ion      s      p      d    tot
    1  0.322  0.000  0.000  0.322
    2  0.322  0.000  0.000  0.322
tot    0.645  0.000  0.000  0.645

band    12 # energy    6.04015761 # occ.  2.00000000

ion      s      p      d    tot
    1  0.000  0.326  0.047  0.373
    2  0.000  0.326  0.047  0.373
tot    0.000  0.653  0.093  0.746

band    13 # energy    6.04017121 # occ.  2.00000000

ion      s      p      d    tot
    1  0.000  0.326  0.047  0.373
    2  0.000  0.326  0.047  0.373
tot    0.000  0.653  0.093  0.746

band    14 # energy    6.04017123 # occ.  2.00000000

ion      s      p      d    tot
    1  0.000  0.326  0.047  0.373
    2  0.000  0.326  0.047  0.373
tot    0.000  0.653  0.093  0.746

band    15 # energy    7.04809914 # occ.  0.00000000

ion      s      p      d    tot
    1  0.425  0.000  0.000  0.425
    2  0.425  0.000  0.000  0.425
tot    0.849  0.000  0.000  0.849

band    16 # energy    8.63424818 # occ.  0.00000000

ion      s      p      d    tot
    1  0.000  0.214  0.057  0.271
    2  0.000  0.214  0.057  0.271
tot    0.000  0.428  0.114  0.542

band    17 # energy    8.63425488 # occ.  0.00000000

ion      s      p      d    tot
    1  0.000  0.214  0.057  0.271
    2  0.000  0.214  0.057  0.271
tot    0.000  0.428  0.114  0.542

band    18 # energy    8.63425494 # occ.  0.00000000

ion      s      p      d    tot
    1  0.000  0.214  0.057  0.271
    2  0.000  0.214  0.057  0.271
tot    0.000  0.428  0.114  0.542


 k-point     2 :    0.09090909 0.00000000 0.00000000     weight = 0.00601052

band     1 # energy  -18.95369006 # occ.  2.00000000

ion      s      p      d    tot
    1  0.000  0.001  0.496  0.497
    2  0.000  0.001  0.496  0.497
tot    0.000  0.002  0.993  0.994

band     2 # energy  -18.95368939 # occ.  2.00000000

ion      s      p      d    tot
    1  0.000  0.001  0.496  0.497
    2  0.000  0.001  0.496  0.497
tot    0.000  0.002  0.993  0.994

band     3 # energy  -18.94528832 # occ.  2.00000000

ion      s      p      d    tot
    1  0.000  0.001  0.496  0.497
    2  0.000  0.001  0.496  0.497
tot    0.000  0.002  0.993  0.995

band     4 # energy  -18.89281652 # occ.  2.00000000

ion      s      p      d    tot
    1  0.000  0.000  0.496  0.496
    2  0.000  0.000  0.496  0.496
tot    0.000  0.000  0.992  0.992

band     5 # energy  -18.89281648 # occ.  2.00000000

ion      s      p      d    tot
    1  0.000  0.000  0.496  0.496
    2  0.000  0.000  0.496  0.496
tot    0.000  0.000  0.992  0.992

band     6 # energy  -18.63804644 # occ.  2.00000000

ion      s      p      d    tot
    1  0.000  0.000  0.498  0.498
    2  0.000  0.000  0.498  0.498
tot    0.000  0.001  0.995  0.996

band     7 # energy  -18.63804597 # occ.  2.00000000

ion      s      p      d    tot
    1  0.000  0.000  0.498  0.498
    2  0.000  0.000  0.498  0.498
tot    0.000  0.001  0.995  0.996

band     8 # energy  -18.63228349 # occ.  2.00000000

ion      s      p      d    tot
    1  0.000  0.001  0.497  0.498
    2  0.000  0.001  0.497  0.498
tot    0.000  0.001  0.995  0.996

band     9 # energy  -18.59782641 # occ.  2.00000000

ion      s      p      d    tot
    1  0.000  0.000  0.499  0.499
    2  0.000  0.000  0.499  0.499
tot    0.000  0.000  0.998  0.998

band    10 # energy  -18.59782611 # occ.  2.00000000

ion      s      p      d    tot
    1  0.000  0.000  0.499  0.499
    2  0.000  0.000  0.499  0.499
tot    0.000  0.000  0.998  0.998

band    11 # energy   -7.44343825 # occ.  2.00000000

ion      s      p      d    tot
    1  0.321  0.002  0.000  0.323
    2  0.321  0.002  0.000  0.323
tot    0.642  0.004  0.000  0.646

band    12 # energy    4.51347712 # occ.  2.00000000

ion      s      p      d    tot
    1  0.130  0.209  0.030  0.370
    2  0.130  0.209  0.030  0.370
tot    0.261  0.418  0.060  0.739

band    13 # energy    5.81477851 # occ.  2.00000000

ion      s      p      d    tot
    1  0.000  0.321  0.043  0.363
    2  0.000  0.321  0.043  0.363
tot    0.000  0.642  0.085  0.727

band    14 # energy    5.81479009 # occ.  2.00000000

ion      s      p      d    tot
    1  0.000  0.321  0.043  0.363
    2  0.000  0.321  0.043  0.363
tot    0.000  0.642  0.085  0.727

band    15 # energy    7.62077570 # occ.  0.00000000

ion      s      p      d    tot
    1  0.245  0.098  0.017  0.360
    2  0.245  0.098  0.017  0.360
tot    0.490  0.196  0.034  0.721

band    16 # energy    8.93072267 # occ.  0.00000000

ion      s      p      d    tot
    1  0.000  0.220  0.060  0.281
    2  0.000  0.220  0.060  0.281
tot    0.000  0.441  0.121  0.561

band    17 # energy    8.93072922 # occ.  0.00000000

ion      s      p      d    tot
    1  0.000  0.220  0.060  0.281
    2  0.000  0.220  0.060  0.281
tot    0.000  0.441  0.121  0.561

band    18 # energy    9.32028132 # occ.  0.00000000

ion      s      p      d    tot
    1  0.064  0.204  0.051  0.319
    2  0.064  0.204  0.051  0.319
tot    0.128  0.407  0.102  0.638


 k-point     3 :    0.18181818 0.00000000 0.00000000     weight = 0.00601052

band     1 # energy  -18.96440230 # occ.  2.00000000

ion      s      p      d    tot
    1  0.000  0.001  0.496  0.497
    2  0.000  0.001  0.496  0.497
tot    0.000  0.001  0.993  0.994

band     2 # energy  -18.96440156 # occ.  2.00000000

ion      s      p      d    tot
    1  0.000  0.001  0.496  0.497
    2  0.000  0.001  0.496  0.497
tot    0.000  0.001  0.993  0.994

band     3 # energy  -18.94076792 # occ.  2.00000000

ion      s      p      d    tot
    1  0.000  0.001  0.496  0.497
    2  0.000  0.001  0.496  0.497
tot    0.000  0.001  0.993  0.995

band     4 # energy  -18.87587180 # occ.  2.00000000

ion      s      p      d    tot
    1  0.000  0.000  0.496  0.496
    2  0.000  0.000  0.496  0.496
tot    0.000  0.000  0.993  0.993

band     5 # energy  -18.87587164 # occ.  2.00000000

ion      s      p      d    tot
    1  0.000  0.000  0.496  0.496
    2  0.000  0.000  0.496  0.496
tot    0.000  0.000  0.993  0.993

band     6 # energy  -18.65095642 # occ.  2.00000000

ion      s      p      d    tot
    1  0.000  0.000  0.498  0.498
    2  0.000  0.000  0.498  0.498
tot    0.000  0.001  0.996  0.996

band     7 # energy  -18.65095626 # occ.  2.00000000

ion      s      p      d    tot
    1  0.000  0.000  0.498  0.498
    2  0.000  0.000  0.498  0.498
tot    0.000  0.001  0.996  0.996

band     8 # energy  -18.63783626 # occ.  2.00000000

ion      s      p      d    tot
    1  0.000  0.000  0.497  0.498
    2  0.000  0.000  0.497  0.498
tot    0.001  0.001  0.994  0.996

band     9 # energy  -18.58801664 # occ.  2.00000000

ion      s      p      d    tot
    1  0.000  0.000  0.499  0.499
    2  0.000  0.000  0.499  0.499
tot    0.000  0.000  0.997  0.998

band    10 # energy  -18.58801600 # occ.  2.00000000

ion      s      p      d    tot
    1  0.000  0.000  0.499  0.499
    2  0.000  0.000  0.499  0.499
tot    0.000  0.000  0.997  0.998

band    11 # energy   -7.11424199 # occ.  2.00000000

ion      s      p      d    tot
    1  0.318  0.007  0.001  0.326
    2  0.318  0.007  0.001  0.326
tot    0.636  0.014  0.001  0.651

band    12 # energy    2.54752855 # occ.  2.00000000

ion      s      p      d    tot
    1  0.153  0.177  0.022  0.352
    2  0.153  0.177  0.022  0.352
tot    0.306  0.353  0.044  0.703

band    13 # energy    5.36815105 # occ.  2.00000000

ion      s      p      d    tot
    1  0.000  0.316  0.035  0.351
    2  0.000  0.316  0.035  0.351
tot    0.000  0.633  0.070  0.703

band    14 # energy    5.36816199 # occ.  2.00000000

ion      s      p      d    tot
    1  0.000  0.316  0.035  0.351
    2  0.000  0.316  0.035  0.351
tot    0.000  0.633  0.070  0.703

band    15 # energy    7.36311121 # occ.  0.00000000

ion      s      p      d    tot
    1  0.204  0.088  0.028  0.319
    2  0.204  0.088  0.028  0.319
tot    0.407  0.176  0.056  0.639

band    16 # energy    9.49801222 # occ.  0.00000000

ion      s      p      d    tot
    1  0.000  0.221  0.067  0.288
    2  0.000  0.221  0.067  0.288
tot    0.000  0.442  0.133  0.575

band    17 # energy    9.49801934 # occ.  0.00000000

ion      s      p      d    tot
    1  0.000  0.221  0.067  0.288
    2  0.000  0.221  0.067  0.288
tot    0.000  0.442  0.133  0.575

band    18 # energy   10.99235702 # occ.  0.00000000

ion      s      p      d    tot
    1  0.102  0.197  0.037  0.336
    2  0.102  0.197  0.037  0.336
tot    0.203  0.393  0.075  0.671


 k-point     4 :    0.27272727 0.00000000 0.00000000     weight = 0.00601052

band     1 # energy  -18.97222644 # occ.  2.00000000

ion      s      p      d    tot
    1  0.000  0.001  0.496  0.497
    2  0.000  0.001  0.496  0.497
tot    0.000  0.001  0.993  0.994

band     2 # energy  -18.97222558 # occ.  2.00000000

ion      s      p      d    tot
    1  0.000  0.001  0.496  0.497
    2  0.000  0.001  0.496  0.497
tot    0.000  0.001  0.993  0.994

band     3 # energy  -18.93462777 # occ.  2.00000000

ion      s      p      d    tot
    1  0.000  0.000  0.496  0.497
    2  0.000  0.000  0.496  0.497
tot    0.001  0.001  0.993  0.994

band     4 # energy  -18.86084549 # occ.  2.00000000

ion      s      p      d    tot
    1  0.000  0.000  0.496  0.496
    2  0.000  0.000  0.496  0.496
tot    0.000  0.000  0.993  0.993

band     5 # energy  -18.86084518 # occ.  2.00000000

ion      s      p      d    tot
    1  0.000  0.000  0.496  0.496
    2  0.000  0.000  0.496  0.496
tot    0.000  0.000  0.993  0.993

band     6 # energy  -18.66110027 # occ.  2.00000000

ion      s      p      d    tot
    1  0.000  0.000  0.498  0.498
    2  0.000  0.000  0.498  0.498
tot    0.000  0.000  0.996  0.996

band     7 # energy  -18.66110019 # occ.  2.00000000

ion      s      p      d    tot
    1  0.000  0.000  0.498  0.498
    2  0.000  0.000  0.498  0.498
tot    0.000  0.000  0.996  0.996

band     8 # energy  -18.64512770 # occ.  2.00000000

ion      s      p      d    tot
    1  0.001  0.000  0.497  0.498
    2  0.001  0.000  0.497  0.498
tot    0.001  0.000  0.994  0.996

band     9 # energy  -18.58054587 # occ.  2.00000000

ion      s      p      d    tot
    1  0.000  0.000  0.499  0.499
    2  0.000  0.000  0.499  0.499
tot    0.000  0.001  0.997  0.998

band    10 # energy  -18.58054494 # occ.  2.00000000

ion      s      p      d    tot
    1  0.000  0.000  0.499  0.499
    2  0.000  0.000  0.499  0.499
tot    0.000  0.001  0.997  0.998

band    11 # energy   -6.58477931 # occ.  2.00000000

ion      s      p      d    tot
    1  0.314  0.014  0.002  0.331
    2  0.314  0.014  0.002  0.331
tot    0.629  0.028  0.004  0.661

band    12 # energy    0.71287281 # occ.  2.00000000

ion      s      p      d    tot
    1  0.165  0.155  0.015  0.335
    2  0.165  0.155  0.015  0.335
tot    0.329  0.311  0.029  0.670

band    13 # energy    4.94767468 # occ.  2.00000000

ion      s      p      d    tot
    1  0.000  0.317  0.028  0.345
    2  0.000  0.317  0.028  0.345
tot    0.000  0.633  0.056  0.690

band    14 # energy    4.94768530 # occ.  2.00000000

ion      s      p      d    tot
    1  0.000  0.317  0.028  0.345
    2  0.000  0.317  0.028  0.345
tot    0.000  0.633  0.056  0.690

band    15 # energy    6.99454925 # occ.  0.00000000

ion      s      p      d    tot
    1  0.210  0.067  0.033  0.311
    2  0.210  0.067  0.033  0.311
tot    0.421  0.135  0.067  0.622

band    16 # energy    9.86355616 # occ.  0.00000000

ion      s      p      d    tot
    1  0.000  0.198  0.077  0.275
    2  0.000  0.198  0.077  0.275
tot    0.000  0.396  0.154  0.549

band    17 # energy    9.86356284 # occ.  0.00000000

ion      s      p      d    tot
    1  0.000  0.198  0.077  0.275
    2  0.000  0.198  0.077  0.275
tot    0.000  0.396  0.154  0.549

band    18 # energy   12.72394493 # occ.  0.00000000

ion      s      p      d    tot
    1  0.075  0.210  0.029  0.314
    2  0.075  0.210  0.029  0.314
tot    0.150  0.419  0.058  0.628


 k-point     5 :    0.36363636 0.00000000 0.00000000     weight = 0.00601052

band     1 # energy  -18.97620489 # occ.  2.00000000

ion      s      p      d    tot
    1  0.000  0.001  0.496  0.497
    2  0.000  0.001  0.496  0.497
tot    0.000  0.001  0.993  0.994

band     2 # energy  -18.97620395 # occ.  2.00000000

ion      s      p      d    tot
    1  0.000  0.001  0.496  0.497
    2  0.000  0.001  0.496  0.497
tot    0.000  0.001  0.993  0.994

band     3 # energy  -18.92918946 # occ.  2.00000000

ion      s      p      d    tot
    1  0.001  0.000  0.496  0.497
    2  0.001  0.000  0.496  0.497
tot    0.001  0.000  0.992  0.994

band     4 # energy  -18.85166532 # occ.  2.00000000

ion      s      p      d    tot
    1  0.000  0.000  0.496  0.496
    2  0.000  0.000  0.496  0.496
tot    0.000  0.000  0.993  0.993

band     5 # energy  -18.85166488 # occ.  2.00000000

ion      s      p      d    tot
    1  0.000  0.000  0.496  0.496
    2  0.000  0.000  0.496  0.496
tot    0.000  0.000  0.993  0.993

band     6 # energy  -18.66633092 # occ.  2.00000000

ion      s      p      d    tot
    1  0.000  0.000  0.498  0.498
    2  0.000  0.000  0.498  0.498
tot    0.000  0.000  0.996  0.997

band     7 # energy  -18.66633062 # occ.  2.00000000

ion      s      p      d    tot
    1  0.000  0.000  0.498  0.498
    2  0.000  0.000  0.498  0.498
tot    0.000  0.000  0.996  0.997

band     8 # energy  -18.65214414 # occ.  2.00000000

ion      s      p      d    tot
    1  0.001  0.000  0.497  0.498
    2  0.001  0.000  0.497  0.498
tot    0.002  0.000  0.994  0.996

band     9 # energy  -18.57630733 # occ.  2.00000000

ion      s      p      d    tot
    1  0.000  0.000  0.499  0.499
    2  0.000  0.000  0.499  0.499
tot    0.000  0.001  0.997  0.998

band    10 # energy  -18.57630615 # occ.  2.00000000

ion      s      p      d    tot
    1  0.000  0.000  0.499  0.499
    2  0.000  0.000  0.499  0.499
tot    0.000  0.001  0.997  0.998

band    11 # energy   -5.91237252 # occ.  2.00000000

ion      s      p      d    tot
    1  0.315  0.021  0.004  0.339
    2  0.315  0.021  0.004  0.339
tot    0.629  0.041  0.008  0.678

band    12 # energy   -0.85480050 # occ.  2.00000000

ion      s      p      d    tot
    1  0.170  0.141  0.008  0.319
    2  0.170  0.141  0.008  0.319
tot    0.339  0.281  0.017  0.637

band    13 # energy    4.64468501 # occ.  2.00000000

ion      s      p      d    tot
    1  0.000  0.319  0.023  0.342
    2  0.000  0.319  0.023  0.342
tot    0.000  0.638  0.045  0.683

band    14 # energy    4.64469551 # occ.  2.00000000

ion      s      p      d    tot
    1  0.000  0.319  0.023  0.342
    2  0.000  0.319  0.023  0.342
tot    0.000  0.638  0.045  0.683

band    15 # energy    6.72024874 # occ.  0.00000000

ion      s      p      d    tot
    1  0.220  0.053  0.037  0.310
    2  0.220  0.053  0.037  0.310
tot    0.440  0.106  0.074  0.620

band    16 # energy    9.90497401 # occ.  0.00000000

ion      s      p      d    tot
    1  0.000  0.166  0.087  0.253
    2  0.000  0.166  0.087  0.253
tot    0.000  0.332  0.175  0.506

band    17 # energy    9.90497972 # occ.  0.00000000

ion      s      p      d    tot
    1  0.000  0.166  0.087  0.253
    2  0.000  0.166  0.087  0.253
tot    0.000  0.332  0.175  0.506

band    18 # energy   13.43251135 # occ.  0.00000000

ion      s      p      d    tot
    1  0.003  0.086  0.021  0.110
    2  0.003  0.086  0.021  0.110
tot    0.006  0.173  0.041  0.220


 k-point     6 :    0.45454545 0.00000000 0.00000000     weight = 0.00601052

band     1 # energy  -18.97769692 # occ.  2.00000000

ion      s      p      d    tot
    1  0.000  0.001  0.497  0.497
    2  0.000  0.001  0.497  0.497
tot    0.000  0.001  0.993  0.994

band     2 # energy  -18.97769591 # occ.  2.00000000

ion      s      p      d    tot
    1  0.000  0.001  0.497  0.497
    2  0.000  0.001  0.497  0.497
tot    0.000  0.001  0.993  0.994

band     3 # energy  -18.92587964 # occ.  2.00000000

ion      s      p      d    tot
    1  0.001  0.000  0.496  0.497
    2  0.001  0.000  0.496  0.497
tot    0.001  0.000  0.992  0.994

band     4 # energy  -18.84792914 # occ.  2.00000000

ion      s      p      d    tot
    1  0.000  0.000  0.496  0.496
    2  0.000  0.000  0.496  0.496
tot    0.000  0.000  0.992  0.993

band     5 # energy  -18.84792862 # occ.  2.00000000

ion      s      p      d    tot
    1  0.000  0.000  0.496  0.496
    2  0.000  0.000  0.496  0.496
tot    0.000  0.000  0.992  0.993

band     6 # energy  -18.66785616 # occ.  2.00000000

ion      s      p      d    tot
    1  0.000  0.000  0.498  0.498
    2  0.000  0.000  0.498  0.498
tot    0.000  0.000  0.997  0.997

band     7 # energy  -18.66785573 # occ.  2.00000000

ion      s      p      d    tot
    1  0.000  0.000  0.498  0.498
    2  0.000  0.000  0.498  0.498
tot    0.000  0.000  0.997  0.997

band     8 # energy  -18.65627452 # occ.  2.00000000

ion      s      p      d    tot
    1  0.001  0.000  0.497  0.498
    2  0.001  0.000  0.497  0.498
tot    0.002  0.000  0.994  0.996

band     9 # energy  -18.57469557 # occ.  2.00000000

ion      s      p      d    tot
    1  0.000  0.000  0.498  0.499
    2  0.000  0.000  0.498  0.499
tot    0.000  0.001  0.997  0.997

band    10 # energy  -18.57469423 # occ.  2.00000000

ion      s      p      d    tot
    1  0.000  0.000  0.498  0.499
    2  0.000  0.000  0.498  0.499
tot    0.000  0.001  0.997  0.997

band    11 # energy   -5.30655164 # occ.  2.00000000

ion      s      p      d    tot
    1  0.323  0.022  0.007  0.352
    2  0.323  0.022  0.007  0.352
tot    0.647  0.043  0.014  0.704

band    12 # energy   -1.91452509 # occ.  2.00000000

ion      s      p      d    tot
    1  0.163  0.136  0.003  0.302
    2  0.163  0.136  0.003  0.302
tot    0.326  0.272  0.006  0.604

band    13 # energy    4.48872888 # occ.  2.00000000

ion      s      p      d    tot
    1  0.000  0.321  0.020  0.340
    2  0.000  0.321  0.020  0.340
tot    0.000  0.641  0.040  0.681

band    14 # energy    4.48873934 # occ.  2.00000000

ion      s      p      d    tot
    1  0.000  0.321  0.020  0.340
    2  0.000  0.321  0.020  0.340
tot    0.000  0.641  0.040  0.681

band    15 # energy    6.57912334 # occ.  0.00000000

ion      s      p      d    tot
    1  0.226  0.046  0.039  0.311
    2  0.226  0.046  0.039  0.311
tot    0.452  0.091  0.078  0.621

band    16 # energy    9.84352909 # occ.  0.00000000

ion      s      p      d    tot
    1  0.000  0.148  0.093  0.241
    2  0.000  0.148  0.093  0.241
tot    0.000  0.296  0.186  0.482

band    17 # energy    9.84353421 # occ.  0.00000000

ion      s      p      d    tot
    1  0.000  0.148  0.093  0.241
    2  0.000  0.148  0.093  0.241
tot    0.000  0.296  0.186  0.482

band    18 # energy   13.23114249 # occ.  0.00000000

ion      s      p      d    tot
    1  0.008  0.051  0.021  0.079
    2  0.008  0.051  0.021  0.079
tot    0.015  0.102  0.042  0.159


 k-point     7 :    0.09090909 0.09090909 0.00000000     weight = 0.00450789

band     1 # energy  -18.95468302 # occ.  2.00000000

ion      s      p      d    tot
    1  0.000  0.001  0.496  0.497
    2  0.000  0.001  0.496  0.497
tot    0.000  0.001  0.992  0.994

band     2 # energy  -18.95082767 # occ.  2.00000000

ion      s      p      d    tot
    1  0.000  0.001  0.496  0.497
    2  0.000  0.001  0.496  0.497
tot    0.000  0.002  0.993  0.995

band     3 # energy  -18.95082719 # occ.  2.00000000

ion      s      p      d    tot
    1  0.000  0.001  0.496  0.497
    2  0.000  0.001  0.496  0.497
tot    0.000  0.002  0.993  0.995

band     4 # energy  -18.89550823 # occ.  2.00000000

ion      s      p      d    tot
    1  0.000  0.000  0.496  0.496
    2  0.000  0.000  0.496  0.496
tot    0.000  0.000  0.992  0.992

band     5 # energy  -18.88327399 # occ.  2.00000000

ion      s      p      d    tot
    1  0.000  0.000  0.496  0.496
    2  0.000  0.000  0.496  0.496
tot    0.000  0.000  0.992  0.993

band     6 # energy  -18.65707875 # occ.  2.00000000

ion      s      p      d    tot
    1  0.000  0.000  0.497  0.498
    2  0.000  0.000  0.497  0.498
tot    0.000  0.001  0.995  0.996

band     7 # energy  -18.62386269 # occ.  2.00000000

ion      s      p      d    tot
    1  0.000  0.001  0.497  0.498
    2  0.000  0.001  0.497  0.498
tot    0.000  0.001  0.995  0.996

band     8 # energy  -18.62386212 # occ.  2.00000000

ion      s      p      d    tot
    1  0.000  0.001  0.497  0.498
    2  0.000  0.001  0.497  0.498
tot    0.000  0.001  0.995  0.996

band     9 # energy  -18.60996967 # occ.  2.00000000

ion      s      p      d    tot
    1  0.000  0.000  0.499  0.499
    2  0.000  0.000  0.499  0.499
tot    0.000  0.000  0.998  0.998

band    10 # energy  -18.59126373 # occ.  2.00000000

ion      s      p      d    tot
    1  0.000  0.000  0.499  0.499
    2  0.000  0.000  0.499  0.499
tot    0.000  0.000  0.998  0.998

band    11 # energy   -7.40615334 # occ.  2.00000000

ion      s      p      d    tot
    1  0.321  0.002  0.000  0.323
    2  0.321  0.002  0.000  0.323
tot    0.641  0.005  0.000  0.647

band    12 # energy    4.56710267 # occ.  2.00000000

ion      s      p      d    tot
    1  0.178  0.184  0.030  0.392
    2  0.178  0.184  0.030  0.392
tot    0.355  0.368  0.060  0.783

band    13 # energy    5.41413931 # occ.  2.00000000

ion      s      p      d    tot
    1  0.000  0.308  0.038  0.346
    2  0.000  0.308  0.038  0.346
tot    0.000  0.616  0.076  0.692

band    14 # energy    5.41414730 # occ.  2.00000000

ion      s      p      d    tot
    1  0.000  0.308  0.038  0.346
    2  0.000  0.308  0.038  0.346
tot    0.000  0.616  0.076  0.692

band    15 # energy    8.20826034 # occ.  0.00000000

ion      s      p      d    tot
    1  0.018  0.178  0.054  0.251
    2  0.018  0.178  0.054  0.251
tot    0.037  0.357  0.108  0.502

band    16 # energy    8.43799728 # occ.  0.00000000

ion      s      p      d    tot
    1  0.244  0.147  0.012  0.402
    2  0.244  0.147  0.012  0.402
tot    0.487  0.293  0.024  0.805

band    17 # energy    9.44659047 # occ.  0.00000000

ion      s      p      d    tot
    1  0.000  0.233  0.066  0.299
    2  0.000  0.233  0.066  0.299
tot    0.000  0.466  0.132  0.597

band    18 # energy    9.44659625 # occ.  0.00000000

ion      s      p      d    tot
    1  0.000  0.233  0.066  0.299
    2  0.000  0.233  0.066  0.299
tot    0.000  0.466  0.132  0.597


 k-point     8 :    0.18181818 0.09090909 0.00000000     weight = 0.01803156

band     1 # energy  -18.96609083 # occ.  2.00000000

ion      s      p      d    tot
    1  0.000  0.001  0.496  0.497
    2  0.000  0.001  0.496  0.497
tot    0.000  0.001  0.992  0.994

band     2 # energy  -18.95823527 # occ.  2.00000000

ion      s      p      d    tot
    1  0.000  0.001  0.496  0.497
    2  0.000  0.001  0.496  0.497
tot    0.000  0.002  0.993  0.994

band     3 # energy  -18.94696474 # occ.  2.00000000

ion      s      p      d    tot
    1  0.000  0.001  0.496  0.497
    2  0.000  0.001  0.496  0.497
tot    0.000  0.001  0.993  0.994

band     4 # energy  -18.88369635 # occ.  2.00000000

ion      s      p      d    tot
    1  0.000  0.000  0.496  0.496
    2  0.000  0.000  0.496  0.496
tot    0.000  0.000  0.992  0.992

band     5 # energy  -18.86508444 # occ.  2.00000000

ion      s      p      d    tot
    1  0.000  0.000  0.496  0.497
    2  0.000  0.000  0.496  0.497
tot    0.000  0.001  0.993  0.994

band     6 # energy  -18.67614657 # occ.  2.00000000

ion      s      p      d    tot
    1  0.000  0.000  0.497  0.498
    2  0.000  0.000  0.497  0.498
tot    0.000  0.001  0.995  0.996

band     7 # energy  -18.63181922 # occ.  2.00000000

ion      s      p      d    tot
    1  0.000  0.000  0.498  0.498
    2  0.000  0.000  0.498  0.498
tot    0.000  0.001  0.996  0.997

band     8 # energy  -18.62294609 # occ.  2.00000000

ion      s      p      d    tot
    1  0.000  0.000  0.498  0.498
    2  0.000  0.000  0.498  0.498
tot    0.000  0.001  0.995  0.996

band     9 # energy  -18.60285225 # occ.  2.00000000

ion      s      p      d    tot
    1  0.000  0.000  0.498  0.499
    2  0.000  0.000  0.498  0.499
tot    0.000  0.001  0.997  0.997

band    10 # energy  -18.58338098 # occ.  2.00000000

ion      s      p      d    tot
    1  0.000  0.000  0.499  0.499
    2  0.000  0.000  0.499  0.499
tot    0.000  0.000  0.998  0.998

band    11 # energy   -7.14870637 # occ.  2.00000000

ion      s      p      d    tot
    1  0.318  0.007  0.001  0.325
    2  0.318  0.007  0.001  0.325
tot    0.636  0.013  0.001  0.650

band    12 # energy    3.04038731 # occ.  2.00000000

ion      s      p      d    tot
    1  0.174  0.172  0.024  0.370
    2  0.174  0.172  0.024  0.370
tot    0.347  0.344  0.049  0.740

band    13 # energy    4.92269962 # occ.  2.00000000

ion      s      p      d    tot
    1  0.000  0.303  0.031  0.334
    2  0.000  0.303  0.031  0.334
tot    0.000  0.606  0.063  0.669

band    14 # energy    5.04002336 # occ.  2.00000000

ion      s      p      d    tot
    1  0.028  0.281  0.033  0.341
    2  0.028  0.281  0.033  0.341
tot    0.056  0.562  0.066  0.683

band    15 # energy    8.18326609 # occ.  0.00000000

ion      s      p      d    tot
    1  0.061  0.166  0.050  0.277
    2  0.061  0.166  0.050  0.277
tot    0.121  0.331  0.101  0.554

band    16 # energy    8.67195259 # occ.  0.00000000

ion      s      p      d    tot
    1  0.130  0.171  0.031  0.333
    2  0.130  0.171  0.031  0.333
tot    0.260  0.343  0.063  0.665

band    17 # energy   10.13889532 # occ.  0.00000000

ion      s      p      d    tot
    1  0.000  0.236  0.072  0.308
    2  0.000  0.236  0.072  0.308
tot    0.000  0.473  0.144  0.617

band    18 # energy   10.64757289 # occ.  0.00000000

ion      s      p      d    tot
    1  0.052  0.213  0.056  0.320
    2  0.052  0.213  0.056  0.320
tot    0.103  0.426  0.111  0.641


 k-point     9 :    0.27272727 0.09090909 0.00000000     weight = 0.01803156

band     1 # energy  -18.97734044 # occ.  2.00000000

ion      s      p      d    tot
    1  0.000  0.001  0.496  0.497
    2  0.000  0.001  0.496  0.497
tot    0.000  0.001  0.992  0.994

band     2 # energy  -18.96682168 # occ.  2.00000000

ion      s      p      d    tot
    1  0.000  0.001  0.496  0.497
    2  0.000  0.001  0.496  0.497
tot    0.000  0.001  0.993  0.994

band     3 # energy  -18.93759771 # occ.  2.00000000

ion      s      p      d    tot
    1  0.000  0.000  0.496  0.497
    2  0.000  0.000  0.496  0.497
tot    0.001  0.001  0.992  0.994

band     4 # energy  -18.86823505 # occ.  2.00000000

ion      s      p      d    tot
    1  0.000  0.000  0.496  0.496
    2  0.000  0.000  0.496  0.496
tot    0.000  0.000  0.992  0.993

band     5 # energy  -18.84792330 # occ.  2.00000000

ion      s      p      d    tot
    1  0.000  0.000  0.497  0.497
    2  0.000  0.000  0.497  0.497
tot    0.000  0.001  0.993  0.994

band     6 # energy  -18.69002894 # occ.  2.00000000

ion      s      p      d    tot
    1  0.000  0.000  0.497  0.498
    2  0.000  0.000  0.497  0.498
tot    0.000  0.001  0.994  0.995

band     7 # energy  -18.64543542 # occ.  2.00000000

ion      s      p      d    tot
    1  0.000  0.000  0.498  0.499
    2  0.000  0.000  0.498  0.499
tot    0.000  0.000  0.997  0.997

band     8 # energy  -18.63103204 # occ.  2.00000000

ion      s      p      d    tot
    1  0.000  0.000  0.498  0.498
    2  0.000  0.000  0.498  0.498
tot    0.001  0.001  0.995  0.996

band     9 # energy  -18.59139632 # occ.  2.00000000

ion      s      p      d    tot
    1  0.000  0.000  0.498  0.499
    2  0.000  0.000  0.498  0.499
tot    0.000  0.001  0.997  0.997

band    10 # energy  -18.57422430 # occ.  2.00000000

ion      s      p      d    tot
    1  0.000  0.000  0.499  0.499
    2  0.000  0.000  0.499  0.499
tot    0.000  0.000  0.998  0.998

band    11 # energy   -6.68296488 # occ.  2.00000000

ion      s      p      d    tot