    2    2    1    1
  0.2370191E+02  0.4062338E-09  0.4062338E-09  0.4062338E-09  0.5000000E-15
   1.0000000000000000E-004
  CAR 
 unknown system                          
     28     56     18

  0.1262379E-14  0.1262379E-14  0.1262379E-14  0.7513148E-03
      1        -20.200726   1.000000
      2        -20.200726   1.000000
      3        -20.200725   1.000000
      4        -20.168465   1.000000
      5        -20.168465   1.000000
      6        -19.980911   1.000000
      7        -19.980911   1.000000
      8        -19.980910   1.000000
      9        -19.971812   1.000000
     10        -19.971812   1.000000
     11         -7.876357   1.000000
     12          4.175468   1.000000
     13          4.553890   0.553446
     14          4.553905   0.553278
     15          4.553905   0.553278
     16          7.087204   0.000000
     17          7.087210   0.000000
     18          7.087210   0.000000

  0.9090909E-01  0.1252676E-14  0.1254993E-14  0.6010518E-02
      1        -20.205226   1.000000
      2        -20.205225   1.000000
      3        -20.199573   1.000000
      4        -20.162775   1.000000
      5        -20.162775   1.000000
      6        -19.988788   1.000000
      7        -19.988788   1.000000
      8        -19.982551   1.000000
      9        -19.965116   1.000000
     10        -19.965116   1.000000
     11         -7.779781   1.000000
     12          2.756647   1.000000
     13          4.371299   1.000000
     14          4.371312   1.000000
     15          5.331636   0.000000
     16          7.333209   0.000000
     17          7.333216   0.000000
     18          7.501852   0.000000

  0.1818182E+00  0.1275596E-14  0.1274862E-14  0.6010518E-02
      1        -20.212520   1.000000
      2        -20.212519   1.000000
      3        -20.196426   1.000000
      4        -20.151495   1.000000
      5        -20.151495   1.000000
      6        -19.999060   1.000000
      7        -19.999060   1.000000
      8        -19.986391   1.000000
      9        -19.957058   1.000000
     10        -19.957057   1.000000
     11         -7.494708   1.000000
     12          1.082560   1.000000
     13          3.996936   1.000000
     14          3.996947   1.000000
     15          5.297697   0.000000
     16          7.827525   0.000000
     17          7.827533   0.000000
     18          8.769565   0.000000

  0.2727273E+00  0.1262035E-14  0.1246160E-14  0.6010518E-02
      1        -20.218261   1.000000
      2        -20.218260   1.000000
      3        -20.192094   1.000000
      4        -20.141280   1.000000
      5        -20.141280   1.000000
      6        -20.007228   1.000000
      7        -20.007228   1.000000
      8        -19.991524   1.000000
      9        -19.951266   1.000000
     10        -19.951265   1.000000
     11         -7.039979   1.000000
     12         -0.487375   1.000000
     13          3.635647   1.000000
     14          3.635658   1.000000
     15          5.001539   0.000000
     16          8.193946   0.000000
     17          8.193954   0.000000
     18         10.330673   0.000000

  0.3636364E+00  0.1282284E-14  0.1272968E-14  0.6010518E-02
      1        -20.221502   1.000000
      2        -20.221501   1.000000
      3        -20.187860   1.000000
      4        -20.134678   1.000000
      5        -20.134678   1.000000
      6        -20.012050   1.000000
      7        -20.012050   1.000000
      8        -19.996297   1.000000
      9        -19.947812   1.000000
     10        -19.947811   1.000000
     11         -6.472938   1.000000
     12         -1.823949   1.000000
     13          3.372002   1.000000
     14          3.372013   1.000000
     15          4.752369   0.000000
     16          8.297637   0.000000
     17          8.297645   0.000000
     18         11.669521   0.000000

  0.4545455E+00  0.1287414E-14  0.1272021E-14  0.6010518E-02
      1        -20.222848   1.000000
      2        -20.222846   1.000000
      3        -20.185291   1.000000
      4        -20.131821   1.000000
      5        -20.131820   1.000000
      6        -20.013876   1.000000
      7        -20.013876   1.000000
      8        -19.999218   1.000000
      9        -19.946293   1.000000
     10        -19.946291   1.000000
     11         -5.981557   1.000000
     12         -2.706732   1.000000
     13          3.235500   1.000000
     14          3.235510   1.000000
     15          4.619536   0.042500
     16          8.281929   0.000000
     17          8.281937   0.000000
     18         11.681985   0.000000

  0.9090909E-01  0.9090909E-01  0.1263096E-14  0.4507889E-02
      1        -20.205382   1.000000
      2        -20.203689   1.000000
      3        -20.203688   1.000000
      4        -20.164487   1.000000
      5        -20.156555   1.000000
      6        -20.001277   1.000000
      7        -19.977077   1.000000
      8        -19.977076   1.000000
      9        -19.975730   1.000000
     10        -19.960819   1.000000
     11         -7.747319   1.000000
     12          2.670260   1.000000
     13          4.049881   1.000000
     14          4.049890   1.000000
     15          5.999438   0.000000
     16          6.714503   0.000000
     17          7.755205   0.000000
     18          7.755211   0.000000

  0.1818182E+00  0.9090909E-01  0.1253098E-14  0.1803156E-01
      1        -20.213305   1.000000
      2        -20.208786   1.000000
      3        -20.200482   1.000000
      4        -20.156702   1.000000
      5        -20.144511   1.000000
      6        -20.014399   1.000000
      7        -19.987416   1.000000
      8        -19.977214   1.000000
      9        -19.965997   1.000000
     10        -19.954677   1.000000
     11         -7.524023   1.000000
     12          1.422477   1.000000
     13          3.635894   1.000000
     14          3.673979   1.000000
     15          6.262261   0.000000
     16          6.837854   0.000000
     17          8.352664   0.000000
     18          8.650285   0.000000

  0.2727273E+00  0.9090909E-01  0.1272968E-14  0.1803156E-01
      1        -20.221283   1.000000
      2        -20.214980   1.000000
      3        -20.193893   1.000000
      4        -20.146270   1.000000
      5        -20.132980   1.000000
      6        -20.024334   1.000000
      7        -19.997687   1.000000
      8        -19.983574   1.000000
      9        -19.957545   1.000000
     10        -19.947524   1.000000
     11         -7.122581   1.000000
     12         -0.064779   1.000000
     13          3.220896   1.000000
     14          3.288960   1.000000
     15          5.994817   0.000000
     16          7.442537   0.000000
     17          8.785402   0.000000
     18          9.636761   0.000000

  0.3636364E+00  0.9090909E-01  0.1272021E-14  0.1803156E-01
      1        -20.226756   1.000000
      2        -20.219660   1.000000
      3        -20.186112   1.000000
      4        -20.137191   1.000000
      5        -20.125981   1.000000
      6        -20.028580   1.000000
      7        -20.006455   1.000000
      8        -19.992416   1.000000
      9        -19.951182   1.000000
     10        -19.942093   1.000000
     11         -6.581755   1.000000
     12         -1.439689   1.000000
     13          2.805300   1.000000
     14          3.072262   1.000000
     15          5.706867   0.000000
     16          7.871120   0.000000
     17          8.871613   0.000000
     18         10.563169   0.000000

  0.4545455E+00  0.9090909E-01  0.1271074E-14  0.1803156E-01
      1        -20.229430   1.000000
      2        -20.222929   1.000000
      3        -20.179526   1.000000
      4        -20.130373   1.000000
      5        -20.124991   1.000000
      6        -20.026105   1.000000
      7        -20.013727   1.000000
      8        -20.000883   1.000000
      9        -19.946528   1.000000
     10        -19.939419   1.000000
     11         -6.026894   1.000000
     12         -2.489731   1.000000
     13          2.503556   1.000000
     14          3.006675   1.000000
     15          5.510120   0.000000
     16          8.036199   0.000000
     17          8.740338   0.000000
     18         11.582139   0.000000

 -0.4545455E+00  0.9090909E-01  0.1280545E-14  0.1803156E-01
      1        -20.229330   1.000000
      2        -20.224947   1.000000
      3        -20.176598   1.000000
      4        -20.128474   1.000000
      5        -20.125886   1.000000
      6        -20.019648   1.000000
      7        -20.018402   1.000000
      8        -20.006523   1.000000
      9        -19.943576   1.000000
     10        -19.939940   1.000000
     11         -5.819891   1.000000
     12         -2.821444   1.000000
     13          2.345401   1.000000
     14          3.093340   1.000000
     15          5.437585   0.000000
     16          8.162123   0.000000
     17          8.574444   0.000000
     18         11.972678   0.000000

 -0.3636364E+00  0.9090909E-01  0.1279598E-14  0.1803156E-01
      1        -20.226682   1.000000
      2        -20.225442   1.000000
      3        -20.178840   1.000000
      4        -20.133997   1.000000
      5        -20.124892   1.000000
      6        -20.022674   1.000000
      7        -20.011801   1.000000
      8        -20.004085   1.000000
      9        -19.943731   1.000000
     10        -19.942592   1.000000
     11         -6.199624   1.000000
     12         -2.189962   1.000000
     13          2.347803   1.000000
     14          3.320191   1.000000
     15          5.494983   0.000000
     16          8.330645   0.000000
     17          8.423138   0.000000
     18         11.637719   0.000000

 -0.2727273E+00  0.9090909E-01  0.1278651E-14  0.1803156E-01
      1        -20.223774   1.000000
      2        -20.221571   1.000000
      3        -20.185332   1.000000
      4        -20.140758   1.000000
      5        -20.129269   1.000000
      6        -20.020682   1.000000
      7        -20.009124   1.000000
      8        -19.992475   1.000000
      9        -19.950601   1.000000
     10        -19.944090   1.000000
     11         -6.774825   1.000000
     12         -1.002943   1.000000
     13          2.525739   1.000000
     14          3.659780   1.000000
     15          5.666189   0.000000
     16          8.198805   0.000000
     17          8.414911   0.000000
     18         10.461971   0.000000

 -0.1818182E+00  0.9090909E-01  0.1277704E-14  0.1803156E-01
      1        -20.219326   1.000000
      2        -20.214291   1.000000
      3        -20.193118   1.000000
      4        -20.149238   1.000000
      5        -20.139322   1.000000
      6        -20.013022   1.000000
      7        -20.003480   1.000000
      8        -19.980728   1.000000
      9        -19.960290   1.000000
     10        -19.948446   1.000000
     11         -7.276060   1.000000
     12          0.414245   1.000000
     13          2.902697   1.000000
     14          4.053565   1.000000
     15          5.879381   0.000000
     16          7.794918   0.000000
     17          8.049563   0.000000
     18          9.438298   0.000000

 -0.9090909E-01  0.9090909E-01  0.1276756E-14  0.9015778E-02
      1        -20.212344   1.000000
      2        -20.206685   1.000000
      3        -20.199037   1.000000
      4        -20.158238   1.000000
      5        -20.152119   1.000000
      6        -20.001558   1.000000
      7        -19.995063   1.000000
      8        -19.972701   1.000000
      9        -19.970820   1.000000
     10        -19.955573   1.000000
     11         -7.619968   1.000000
     12          1.809689   1.000000
     13          3.544253   1.000000
     14          4.365683   1.000000
     15          5.835720   0.000000
     16          7.378039   0.000000
     17          7.463996   0.000000
     18          8.482253   0.000000

  0.1818182E+00  0.1818182E+00  0.1263813E-14  0.4507889E-02
      1        -20.210885   1.000000
      2        -20.210884   1.000000
      3        -20.208437   1.000000
      4        -20.152375   1.000000
      5        -20.130916   1.000000
      6        -20.032298   1.000000
      7        -19.986836   1.000000
      8        -19.966359   1.000000
      9        -19.966358   1.000000
     10        -19.956477   1.000000
     11         -7.362451   1.000000
     12          1.022679   1.000000
     13          3.201075   1.000000
     14          3.201083   1.000000
     15          6.043569   0.000000
     16          7.155700   0.000000
     17          9.085576   0.000000
     18          9.085584   0.000000

  0.2727273E+00  0.1818182E+00  0.1251204E-14  0.1803156E-01
      1        -20.220815   1.000000
      2        -20.215903   1.000000
      3        -20.200201   1.000000
      4        -20.142810   1.000000
      5        -20.117034   1.000000
      6        -20.047062   1.000000
      7        -19.996844   1.000000
      8        -19.970895   1.000000
      9        -19.958276   1.000000
     10        -19.949262   1.000000
     11         -7.017744   1.000000
     12         -0.016071   1.000000
     13          2.697472   1.000000
     14          2.843071   1.000000
     15          6.097747   0.000000
     16          7.245178   0.000000
     17          9.520305   0.000000
     18          9.695947   0.000000

  0.3636364E+00  0.1818182E+00  0.1312707E-14  0.1803156E-01
      1        -20.230205   1.000000
      2        -20.220899   1.000000
      3        -20.187652   1.000000
      4        -20.132179   1.000000
      5        -20.107532   1.000000
      6        -20.055458   1.000000
      7        -20.008252   1.000000
      8        -19.984316   1.000000
      9        -19.950440   1.000000
     10        -19.939121   1.000000
     11         -6.515651   1.000000
     12         -1.216822   1.000000
     13          2.105670   1.000000
     14          2.626366   1.000000
     15          6.230579   0.000000
     16          7.686181   0.000000
     17          9.465076   0.000000
     18          9.907864   0.000000

  0.4545455E+00  0.1818182E+00  0.1270127E-14  0.1803156E-01
      1        -20.236716   1.000000
      2        -20.224896   1.000000
      3        -20.174588   1.000000
      4        -20.122285   1.000000
      5        -20.106183   1.000000
      6        -20.054423   1.000000
      7        -20.019336   1.000000
      8        -19.998587   1.000000
      9        -19.944194   1.000000
     10        -19.931870   1.000000
     11         -5.937285   1.000000
     12         -2.287776   1.000000
     13          1.615023   1.000000
     14          2.574699   1.000000
     15          6.146216   0.000000
     16          8.273300   0.000000
     17          9.768208   0.000000
     18          9.948750   0.000000

 -0.4545455E+00  0.1818182E+00  0.1279598E-14  0.1803156E-01
      1        -20.239387   1.000000
      2        -20.227796   1.000000
      3        -20.165237   1.000000
      4        -20.114247   1.000000
      5        -20.112911   1.000000
      6        -20.044432   1.000000
      7        -20.029328   1.000000
      8        -20.009465   1.000000
      9        -19.939827   1.000000
     10        -19.929085   1.000000
     11         -5.556998   1.000000
     12         -2.869508   1.000000
     13          1.299146   1.000000
     14          2.690610   1.000000
     15          6.117063   0.000000
     16          8.449089   0.000000
     17          9.500662   0.000000
     18         11.237420   0.000000

 -0.3636364E+00  0.1818182E+00  0.1278651E-14  0.1803156E-01
      1        -20.237753   1.000000
      2        -20.229303   1.000000
      3        -20.162970   1.000000
      4        -20.124300   1.000000
      5        -20.110299   1.000000
      6        -20.035849   1.000000
      7        -20.028352   1.000000
      8        -20.014374   1.000000
      9        -19.937764   1.000000
     10        -19.931539   1.000000
     11         -5.781885   1.000000
     12         -2.532443   1.000000
     13          1.194932   1.000000
     14          2.959831   1.000000
     15          6.198560   0.000000
     16          8.591401   0.000000
     17          9.198164   0.000000
     18         11.512743   0.000000

 -0.2727273E+00  0.1818182E+00  0.1277704E-14  0.1803156E-01
      1        -20.231986   1.000000
      2        -20.228679   1.000000
      3        -20.169713   1.000000
      4        -20.135004   1.000000
      5        -20.113971   1.000000
      6        -20.034889   1.000000
      7        -20.015958   1.000000
      8        -20.007388   1.000000
      9        -19.939211   1.000000
     10        -19.938423   1.000000
     11         -6.343250   1.000000
     12         -1.579672   1.000000
     13          1.354402   1.000000
     14          3.345538   1.000000
     15          6.345199   0.000000
     16          8.760784   0.000000
     17          8.794824   0.000000
     18         10.154988   0.000000

 -0.1818182E+00  0.1818182E+00  0.1276756E-14  0.9015778E-02
      1        -20.225223   1.000000
      2        -20.223049   1.000000
      3        -20.182255   1.000000
      4        -20.142779   1.000000
      5        -20.125102   1.000000
      6        -20.026096   1.000000
      7        -20.011049   1.000000
      8        -19.989784   1.000000
      9        -19.950811   1.000000
     10        -19.942000   1.000000
     11         -6.880207   1.000000
     12         -0.496431   1.000000
     13          1.886701   1.000000
     14          3.766516   1.000000
     15          6.372123   0.000000
     16          8.240292   0.000000
     17          8.431442   0.000000
     18          9.587011   0.000000

  0.2727273E+00  0.2727273E+00  0.1264530E-14  0.4507889E-02
      1        -20.219601   1.000000
      2        -20.219601   1.000000
      3        -20.203788   1.000000
      4        -20.133407   1.000000
      5        -20.099613   1.000000
      6        -20.067598   1.000000
      7        -20.004636   1.000000
      8        -19.962492   1.000000
      9        -19.953104   1.000000
     10        -19.953103   1.000000
     11         -6.728941   1.000000
     12         -0.573360   1.000000
     13          2.461230   1.000000
     14          2.461237   1.000000
     15          5.495499   0.000000
     16          7.033760   0.000000
     17         10.599600   0.000000
     18         10.599609   0.000000

  0.3636364E+00  0.2727273E+00  0.1249310E-14  0.1803156E-01
      1        -20.228132   1.000000
      2        -20.223805   1.000000
      3        -20.192061   1.000000
      4        -20.121905   1.000000
      5        -20.085874   1.000000
      6        -20.081997   1.000000
      7        -20.016163   1.000000
      8        -19.976602   1.000000
      9        -19.946428   1.000000
     10        -19.941487   1.000000
     11         -6.272426   1.000000
     12         -1.453887   1.000000
     13          1.938153   1.000000
     14          2.218405   1.000000
     15          5.647900   0.000000
     16          6.892795   0.000000
     17         10.617371   0.000000
     18         11.121105   0.000000

  0.4545455E+00  0.2727273E+00  0.1269180E-14  0.1803156E-01
      1        -20.237754   1.000000
      2        -20.227465   1.000000
      3        -20.174654   1.000000
      4        -20.110110   1.000000
      5        -20.089752   1.000000
      6        -20.076911   1.000000
      7        -20.028939   1.000000
      8        -19.995324   1.000000
      9        -19.940607   1.000000
     10        -19.930388   1.000000
     11         -5.698906   1.000000
     12         -2.368019   1.000000
     13          1.256416   1.000000
     14          2.144669   1.000000
     15          5.847503   0.000000
     16          7.620690   0.000000
     17         10.309225   0.000000
     18         11.111867   0.000000

 -0.4545455E+00  0.2727273E+00  0.1278651E-14  0.1803156E-01
      1        -20.244165   1.000000
      2        -20.230266   1.000000
      3        -20.160265   1.000000
      4        -20.099542   1.000000
      5        -20.089045   1.000000
      6        -20.075421   1.000000
      7        -20.041497   1.000000
      8        -20.010409   1.000000
      9        -19.936480   1.000000
     10        -19.923536   1.000000
     11         -5.196973   1.000000
     12         -3.038190   1.000000
     13          0.727897   1.000000
     14          2.246571   1.000000
     15          5.927238   0.000000
     16          8.994261   0.000000
     17         10.156977   0.000000
     18         10.803344   0.000000

 -0.3636364E+00  0.2727273E+00  0.1277704E-14  0.1803156E-01
      1        -20.245507   1.000000
      2        -20.231869   1.000000
      3        -20.154199   1.000000
      4        -20.101614   1.000000
      5        -20.093875   1.000000
      6        -20.060283   1.000000
      7        -20.049729   1.000000
      8        -20.016690   1.000000
      9        -19.934594   1.000000
     10        -19.922519   1.000000
     11         -5.256146   1.000000
     12         -2.959082   1.000000
     13          0.490366   1.000000
     14          2.512395   1.000000
     15          6.104358   0.000000
     16          9.768251   0.000000
     17         10.334961   0.000000
     18         10.893582   0.000000

 -0.2727273E+00  0.2727273E+00  0.1276756E-14  0.9015778E-02
      1        -20.241096   1.000000
      2        -20.231407   1.000000
      3        -20.156950   1.000000
      4        -20.121613   1.000000
      5        -20.099768   1.000000
      6        -20.046644   1.000000
      7        -20.035291   1.000000
      8        -20.016294   1.000000
      9        -19.935112   1.000000
     10        -19.928081   1.000000
     11         -5.788477   1.000000
     12         -2.282022   1.000000
     13          0.658022   1.000000
     14          2.906219   1.000000
     15          6.342199   0.000000
     16          9.637130   0.000000
     17          9.899083   0.000000
     18          9.927966   0.000000

  0.3636364E+00  0.3636364E+00  0.1265247E-14  0.4507889E-02
      1        -20.226990   1.000000
      2        -20.226990   1.000000
      3        -20.190152   1.000000
      4        -20.109291   1.000000
      5        -20.104060   1.000000
      6        -20.065886   1.000000
      7        -20.027618   1.000000
      8        -19.978395   1.000000
      9        -19.941463   1.000000
     10        -19.941462   1.000000
     11         -5.860123   1.000000
     12         -2.094959   1.000000
     13          1.939279   1.000000
     14          1.939286   1.000000
     15          5.207609   0.000000
     16          6.242472   0.000000
     17         12.142713   0.000000
     18         12.142722   0.000000

  0.4545455E+00  0.3636364E+00  0.1247416E-14  0.1803156E-01
      1        -20.233618   1.000000
      2        -20.229620   1.000000
      3        -20.174755   1.000000
      4        -20.117211   1.000000
      5        -20.096241   1.000000
      6        -20.052679   1.000000
      7        -20.040881   1.000000
      8        -19.994706   1.000000
      9        -19.937165   1.000000
     10        -19.933441   1.000000
     11         -5.308078   1.000000
     12         -2.848902   1.000000
     13          1.470049   1.000000
     14          1.827410   1.000000
     15          5.438230   0.000000
     16          6.243754   0.000000
     17         12.111607   0.000000
     18         12.507579   0.000000

 -0.4545455E+00  0.3636364E+00  0.1277704E-14  0.1803156E-01
      1        -20.242064   1.000000
      2        -20.231515   1.000000
      3        -20.157322   1.000000
      4        -20.115767   1.000000
      5        -20.083878   1.000000
      6        -20.054581   1.000000
      7        -20.052310   1.000000
      8        -20.012704   1.000000
      9        -19.934320   1.000000
     10        -19.924715   1.000000
     11         -4.735344   1.000000
     12         -3.496444   1.000000
     13          0.810453   1.000000
     14          1.894432   1.000000
     15          5.601821   0.000000
     16          7.340035   0.000000
     17         11.768046   0.000000
     18         12.221153   0.000000

 -0.3636364E+00  0.3636364E+00  0.1276756E-14  0.9015778E-02
      1        -20.246874   1.000000
      2        -20.232379   1.000000
      3        -20.152037   1.000000
      4        -20.092973   1.000000
      5        -20.080291   1.000000
      6        -20.072796   1.000000
      7        -20.060564   1.000000
      8        -20.017835   1.000000
      9        -19.933385   1.000000
     10        -19.920313   1.000000
     11         -4.726928   1.000000
     12         -3.485136   1.000000
     13          0.397340   1.000000
     14          2.132944   1.000000
     15          5.806030   0.000000
     16          8.985987   0.000000
     17         11.268095   0.000000
     18         11.466823   0.000000

  0.4545455E+00  0.4545455E+00  0.1265965E-14  0.4507889E-02
      1        -20.231020   1.000000
      2        -20.231019   1.000000
      3        -20.167821   1.000000
      4        -20.138414   1.000000
      5        -20.082171   1.000000
      6        -20.054190   1.000000
      7        -20.032492   1.000000
      8        -20.002477   1.000000
      9        -19.934725   1.000000
     10        -19.934724   1.000000
     11         -4.777002   1.000000
     12         -3.509419   1.000000
     13          1.671611   1.000000
     14          1.671618   1.000000
     15          5.229627   0.000000
     16          5.581209   0.000000
     17         13.446992   0.000000
     18         13.447002   0.000000

 -0.4545455E+00  0.4545455E+00  0.1276756E-14  0.9015778E-02
      1        -20.235547   1.000000
      2        -20.231783   1.000000
      3        -20.153546   1.000000
      4        -20.144457   1.000000
      5        -20.069447   1.000000
      6        -20.067236   1.000000
      7        -20.025521   1.000000
      8        -20.017062   1.000000
      9        -19.933696   1.000000
     10        -19.930237   1.000000
     11         -4.215264   1.000000
     12         -4.088587   1.000000
     13          1.312669   1.000000
     14          1.694792   1.000000
     15          5.416600   0.000000
     16          5.948366   0.000000
     17         13.153945   0.000000
     18         13.307899   0.000000

  0.2727273E+00  0.1818182E+00  0.9090909E-01  0.1803156E-01
      1        -20.219344   1.000000
      2        -20.214462   1.000000
      3        -20.196274   1.000000
      4        -20.149188   1.000000
      5        -20.131440   1.000000
      6        -20.028522   1.000000
      7        -19.995119   1.000000
      8        -19.975951   1.000000
      9        -19.961831   1.000000
     10        -19.948798   1.000000
     11         -7.240725   1.000000
     12          0.488385   1.000000
     13          2.703723   1.000000
     14          3.598302   1.000000
     15          6.726098   0.000000
     16          6.787491   0.000000
     17          8.846968   0.000000
     18          9.273535   0.000000

  0.3636364E+00  0.1818182E+00  0.9090909E-01  0.3606311E-01
      1        -20.226283   1.000000
      2        -20.221764   1.000000
      3        -20.185814   1.000000
      4        -20.139938   1.000000
      5        -20.119687   1.000000
      6        -20.038657   1.000000
      7        -20.004212   1.000000
      8        -19.988256   1.000000
      9        -19.950901   1.000000
     10        -19.942156   1.000000
     11         -6.788049   1.000000
     12         -0.717334   1.000000
     13          2.077155   1.000000
     14          3.286125   1.000000
     15          6.567477   0.000000
     16          7.462921   0.000000
     17          9.253825   0.000000
     18          9.560721   0.000000

  0.4545455E+00  0.1818182E+00  0.9090909E-01  0.3606311E-01
      1        -20.232612   1.000000
      2        -20.225945   1.000000
      3        -20.174641   1.000000
      4        -20.131189   1.000000
      5        -20.113526   1.000000
      6        -20.041918   1.000000
      7        -20.012251   1.000000
      8        -20.002619   1.000000
      9        -19.943501   1.000000
     10        -19.936388   1.000000
     11         -6.220521   1.000000
     12         -1.897418   1.000000
     13          1.732383   1.000000
     14          2.963536   1.000000
     15          6.364904   0.000000
     16          7.906143   0.000000
     17          9.317862   0.000000
     18         10.319053   0.000000

 -0.4545455E+00  0.1818182E+00  0.9090909E-01  0.3606311E-01
      1        -20.236214   1.000000
      2        -20.227659   1.000000
      3        -20.167464   1.000000
      4        -20.123402   1.000000
      5        -20.114335   1.000000
      6        -20.037692   1.000000
      7        -20.022438   1.000000
      8        -20.010315   1.000000
      9        -19.940436   1.000000
     10        -19.932560   1.000000
     11         -5.721537   1.000000
     12         -2.727908   1.000000
     13          1.581459   1.000000
     14          2.773276   1.000000
     15          6.247534   0.000000
     16          7.966222   0.000000
     17          9.338568   0.000000
     18         11.505179   0.000000

  0.3636364E+00  0.2727273E+00  0.9090909E-01  0.1803156E-01
      1        -20.225558   1.000000
      2        -20.223621   1.000000
      3        -20.191319   1.000000
      4        -20.132802   1.000000
      5        -20.102893   1.000000
      6        -20.062062   1.000000
      7        -20.006707   1.000000
      8        -19.979296   1.000000
      9        -19.948634   1.000000
     10        -19.943713   1.000000
     11         -6.618607   1.000000
     12         -0.868246   1.000000
     13          1.994210   1.000000
     14          2.644168   1.000000
     15          6.243564   0.000000
     16          7.241721   0.000000