       N       E                     dE             d eps       ncg     rms          rms(c)
DAV:   1     0.155888814081E+03    0.15589E+03   -0.14379E+04  2068   0.385E+03
DAV:   2     0.107222319559E+02   -0.14517E+03   -0.14241E+03  2016   0.502E+02
DAV:   3    -0.852801942797E+01   -0.19250E+02   -0.19144E+02  2190   0.142E+02
DAV:   4    -0.909814549331E+01   -0.57013E+00   -0.56910E+00  2358   0.282E+01
DAV:   5    -0.910706709315E+01   -0.89216E-02   -0.89174E-02  2234   0.362E+00    0.300E+00
DAV:   6    -0.905824061024E+01    0.48826E-01   -0.20502E-02  2168   0.164E+00    0.179E+00
DAV:   7    -0.903168466988E+01    0.26556E-01   -0.50139E-02  2106   0.229E+00    0.150E-01
DAV:   8    -0.903339116074E+01   -0.17065E-02   -0.62440E-03  2280   0.121E+00    0.455E-02
DAV:   9    -0.903344105135E+01   -0.49891E-04   -0.31316E-04  2590   0.346E-01    0.201E-02
DAV:  10    -0.903347405787E+01   -0.33007E-04   -0.73776E-05  2554   0.891E-02    0.558E-03
DAV:  11    -0.903347546428E+01   -0.14064E-05   -0.73264E-06  2568   0.544E-02    0.172E-03
DAV:  12    -0.903347558620E+01   -0.12192E-06   -0.57287E-07  1550   0.118E-02
   1 F= -.90334756E+01 E0= -.90334248E+01  d E =-.101483E-03
