 vasp.6.3.2 27Jun22 (build Nov 28 2025 11:56:12) complex                         
 executed on             LinuxGNU date 2026.01.20  14:27:03
 running    2 mpi-ranks, with    1 threads/rank
 distrk:  each k-point on    2 cores,    1 groups
 distr:  one band on NCORE=   1 cores,    2 groups


--------------------------------------------------------------------------------------------------------


 INCAR:
   ISTART = 1            (Read existing wavefunction, if there)
   ISPIN = 1            (Non-Spin polarised DFT)
   LREAL = .FALSE.       (Projection operators: automatic)
   ENCUT = 450          (Cut-off energy for plane wave basis set, in eV)
   PREC = Accurate   (Precision level: Normal or Accurate, set Accurate when perform structure lattice relaxation calculation)
   LWAVE = .TRUE.        (Write WAVECAR or not)
   LCHARG = .TRUE.        (Write CHGCAR or not)
   ADDGRID = .TRUE.        (Increase grid, helps GGA convergence)
   ISMEAR = 0            (gaussian smearing method)
   SIGMA = 0.05         (please check the width of the smearing)
   NELM = 60           (Max electronic SCF steps)
   EDIFF = 1E-06        (SCF energy convergence, in eV)

 POTCAR:    PAW_PBE Ge_d 03Jul2007                
 POTCAR:    PAW_PBE Ge_d 03Jul2007                
   VRHFIN =Ge: 3d4s4p                                                                               
   LEXCH  = PE                                                                                      
   EATOM  =  2596.2402 eV,  190.8183 Ry                                                             
                                                                                                    
   TITEL  = PAW_PBE Ge_d 03Jul2007                                                                  
   LULTRA =        F    use ultrasoft PP ?                                                          
   IUNSCR =        1    unscreen: 0-lin 1-nonlin 2-no                                               
   RPACOR =    2.000    partial core radius                                                         
   POMASS =   72.610; ZVAL   =   14.000    mass and valenz                                          
   RCORE  =    2.300    outmost cutoff radius                                                       
   RWIGS  =    2.300; RWIGS  =    1.217    wigner-seitz radius (au A)                               
   ENMAX  =  310.294; ENMIN  =  232.720 eV                                                          
   ICORE  =        3    local potential                                                             
   LCOR   =        T    correct aug charges                                                         
   LPAW   =        T    paw PP                                                                      
   EAUG   =  531.356                                                                                
   DEXC   =    0.000                                                                                
   RMAX   =    2.342    core radius for proj-oper                                                   
   RAUG   =    1.300    factor for augmentation sphere                                              
   RDEP   =    2.318    radius for radial grids                                                     
   RDEPT  =    1.783    core radius for aug-charge                                                  
                                                                                                    
   Atomic configuration                                                                             
    9 entries                                                                                       
     n  l   j            E        occ.                                                              
     1  0  0.50    -10959.8463   2.0000                                                             
     2  0  0.50     -1371.6056   2.0000                                                             
     2  1  1.50     -1198.4791   6.0000                                                             
     3  0  0.50      -168.4733   2.0000                                                             
     3  1  1.50      -115.6019   6.0000                                                             
     3  2  2.50       -29.3106  10.0000                                                             
     4  0  0.50       -11.7309   2.0000                                                             
     4  1  0.50        -3.8952   2.0000                                                             
     4  3  2.50        -4.0817   0.0000                                                             
   Description                                                                                      
     l       E           TYP  RCUT    TYP  RCUT                                                     
     2    -29.3105938     23  2.200                                                                 
     2    -13.6058260     23  2.200                                                                 
     0    -11.7309493     23  2.300                                                                 
     0     -7.4578696     23  2.300                                                                 
     1     -3.8952261     23  2.300                                                                 
     1      6.1178114     23  2.300                                                                 
     3     -1.3605826     23  2.300                                                                 
  local pseudopotential read in
  partial core-charges read in
  partial kinetic energy density read in
  atomic valenz-charges read in
  non local Contribution for L=           2  read in
    real space projection operators read in
  non local Contribution for L=           2  read in
    real space projection operators read in
  non local Contribution for L=           0  read in
    real space projection operators read in
  non local Contribution for L=           0  read in
    real space projection operators read in
  non local Contribution for L=           1  read in
    real space projection operators read in
  non local Contribution for L=           1  read in
    real space projection operators read in
    PAW grid and wavefunctions read in

   number of l-projection  operators is LMAX  =           6
   number of lm-projection operators is LMMAX =          18

  PAW_PBE Ge_d 03Jul2007                :
 energy of atom  1       EATOM=-2596.2402
 kinetic energy error for atom=    0.0077 (will be added to EATOM!!)


 POSCAR: cubic diamond Ge
  positions in direct lattice
  velocities in cartesian coordinates
 exchange correlation table for  LEXCH =        8
   RHO(1)=    0.500       N(1)  =     2000
   RHO(2)=  100.500       N(2)  =     4000



--------------------------------------------------------------------------------------------------------


 ion  position               nearest neighbor table
   1  0.875  0.875  0.875-   2 2.49   2 2.49   2 2.49   2 2.49
   2  0.125  0.125  0.125-   1 2.49   1 2.49   1 2.49   1 2.49

  LATTYP: Found a face centered cubic cell.
 ALAT       =     5.7450141918
  
  Lattice vectors:
  
 A1 = (  -0.0000000000,   2.8725070959,   2.8725070959)
 A2 = (   2.8725070959,  -0.0000000000,   2.8725070959)
 A3 = (   2.8725070959,   2.8725070959,   0.0000000000)


Analysis of symmetry for initial positions (statically):
=====================================================================
 Subroutine PRICEL returns:
 Original cell was already a primitive cell.
 

 Routine SETGRP: Setting up the symmetry group for a 
 face centered cubic supercell.


 Subroutine GETGRP returns: Found 48 space group operations
 (whereof 12 operations were pure point group operations)
 out of a pool of 48 trial point group operations.


The static configuration has the point symmetry D_3d.
 The point group associated with its full space group is O_h .


Analysis of symmetry for dynamics (positions and initial velocities):
=====================================================================
 Subroutine PRICEL returns:
 Original cell was already a primitive cell.
 

 Routine SETGRP: Setting up the symmetry group for a 
 face centered cubic supercell.


 Subroutine GETGRP returns: Found 48 space group operations
 (whereof 12 operations were pure point group operations)
 out of a pool of 48 trial point group operations.


The dynamic configuration has the point symmetry D_3d.
 The point group associated with its full space group is O_h .


 Subroutine INISYM returns: Found 48 space group operations
 (whereof 12 operations are pure point group operations),
 and found     1 'primitive' translations


----------------------------------------------------------------------------------------

                                     Primitive cell                                     

  volume of cell :      47.4038

  direct lattice vectors                    reciprocal lattice vectors
    -0.000000000  2.872507096  2.872507096    -0.174063974  0.174063974  0.174063974
     2.872507096 -0.000000000  2.872507096     0.174063974 -0.174063974  0.174063974
     2.872507096  2.872507096  0.000000000     0.174063974  0.174063974 -0.174063974

  length of vectors
     4.062338493  4.062338493  4.062338493     0.301487646  0.301487646  0.301487646

  position of ions in fractional coordinates (direct lattice)
     0.875000000  0.875000000  0.875000000
     0.125000000  0.125000000  0.125000000

  ion indices of the primitive-cell ions
   primitive index   ion index
                 1           1
                 2           2

----------------------------------------------------------------------------------------



 KPOINTS: K-Spacing Value to Generate K-Mesh: 0.03

Automatic generation of k-mesh.
 Grid dimensions read from file:
 generate k-points for:   11   11   11

 Generating k-lattice:

  Cartesian coordinates                     Fractional coordinates (reciprocal lattice)
    -0.015823998  0.015823998  0.015823998     0.090909091 -0.000000000  0.000000000
     0.015823998 -0.015823998  0.015823998    -0.000000000  0.090909091 -0.000000000
     0.015823998  0.015823998 -0.015823998     0.000000000  0.000000000  0.090909091

  Length of vectors
     0.027407968  0.027407968  0.027407968

  Shift w.r.t. Gamma in fractional coordinates (k-lattice)
     0.000000000  0.000000000  0.000000000

 
 Subroutine IBZKPT returns following result:
 ===========================================
 
 Found     56 irreducible k-points:
 
 Following reciprocal coordinates:
            Coordinates               Weight
  0.000000  0.000000  0.000000      1.000000
  0.090909  0.000000  0.000000      8.000000
  0.181818  0.000000  0.000000      8.000000
  0.272727  0.000000  0.000000      8.000000
  0.363636  0.000000  0.000000      8.000000
  0.454545  0.000000  0.000000      8.000000
  0.090909  0.090909  0.000000      6.000000
  0.181818  0.090909  0.000000     24.000000
  0.272727  0.090909  0.000000     24.000000
  0.363636  0.090909  0.000000     24.000000
  0.454545  0.090909  0.000000     24.000000
 -0.454545  0.090909  0.000000     24.000000
 -0.363636  0.090909  0.000000     24.000000
 -0.272727  0.090909  0.000000     24.000000
 -0.181818  0.090909  0.000000     24.000000
 -0.090909  0.090909  0.000000     12.000000
  0.181818  0.181818  0.000000      6.000000
  0.272727  0.181818  0.000000     24.000000
  0.363636  0.181818  0.000000     24.000000
  0.454545  0.181818  0.000000     24.000000
 -0.454545  0.181818  0.000000     24.000000
 -0.363636  0.181818  0.000000     24.000000
 -0.272727  0.181818  0.000000     24.000000
 -0.181818  0.181818  0.000000     12.000000
  0.272727  0.272727  0.000000      6.000000
  0.363636  0.272727  0.000000     24.000000
  0.454545  0.272727  0.000000     24.000000
 -0.454545  0.272727  0.000000     24.000000
 -0.363636  0.272727  0.000000     24.000000
 -0.272727  0.272727  0.000000     12.000000
  0.363636  0.363636  0.000000      6.000000
  0.454545  0.363636  0.000000     24.000000
 -0.454545  0.363636  0.000000     24.000000
 -0.363636  0.363636  0.000000     12.000000
  0.454545  0.454545  0.000000      6.000000
 -0.454545  0.454545  0.000000     12.000000
  0.272727  0.181818  0.090909     24.000000
  0.363636  0.181818  0.090909     48.000000
  0.454545  0.181818  0.090909     48.000000
 -0.454545  0.181818  0.090909     48.000000
  0.363636  0.272727  0.090909     24.000000
  0.454545  0.272727  0.090909     48.000000
 -0.454545  0.272727  0.090909     48.000000
 -0.363636  0.272727  0.090909     48.000000
 -0.272727  0.272727  0.090909     48.000000
 -0.181818  0.272727  0.090909     24.000000
  0.454545  0.363636  0.090909     24.000000
 -0.454545  0.363636  0.090909     48.000000
 -0.363636  0.363636  0.090909     48.000000
 -0.272727  0.363636  0.090909     24.000000
 -0.454545  0.454545  0.090909     24.000000
 -0.363636  0.454545  0.090909     24.000000
 -0.454545  0.363636  0.181818     24.000000
 -0.363636  0.363636  0.181818     48.000000
 -0.363636  0.454545  0.181818     24.000000
 -0.272727  0.454545  0.181818     24.000000
 
 Following cartesian coordinates:
            Coordinates               Weight
  0.000000  0.000000  0.000000      1.000000
 -0.089525  0.089525  0.089525      8.000000
 -0.179050  0.179050  0.179050      8.000000
 -0.268575  0.268575  0.268575      8.000000
 -0.358100  0.358100  0.358100      8.000000
 -0.447624  0.447624  0.447624      8.000000
  0.000000  0.000000  0.179050      6.000000
 -0.089525  0.089525  0.268575     24.000000
 -0.179050  0.179050  0.358100     24.000000
 -0.268575  0.268575  0.447624     24.000000
 -0.358100  0.358100  0.537149     24.000000
  0.537149 -0.537149 -0.358100     24.000000
  0.447624 -0.447624 -0.268575     24.000000
  0.358100 -0.358100 -0.179050     24.000000
  0.268575 -0.268575 -0.089525     24.000000
  0.179050 -0.179050  0.000000     12.000000
  0.000000  0.000000  0.358100      6.000000
 -0.089525  0.089525  0.447624     24.000000
 -0.179050  0.179050  0.537149     24.000000
 -0.268575  0.268575  0.626674     24.000000
  0.626674 -0.626674 -0.268575     24.000000
  0.537149 -0.537149 -0.179050     24.000000
  0.447624 -0.447624 -0.089525     24.000000
  0.358100 -0.358100  0.000000     12.000000
  0.000000  0.000000  0.537149      6.000000
 -0.089525  0.089525  0.626674     24.000000
 -0.179050  0.179050  0.716199     24.000000
  0.716199 -0.716199 -0.179050     24.000000
  0.626674 -0.626674 -0.089525     24.000000
  0.537149 -0.537149  0.000000     12.000000
  0.000000  0.000000  0.716199      6.000000
 -0.089525  0.089525  0.805724     24.000000
  0.805724 -0.805724 -0.089525     24.000000
  0.716199 -0.716199  0.000000     12.000000
  0.000000  0.000000  0.895249      6.000000
  0.895249 -0.895249  0.000000     12.000000
  0.000000  0.179050  0.358100     24.000000
 -0.089525  0.268575  0.447624     48.000000
 -0.179050  0.358100  0.537149     48.000000
  0.716199 -0.537149 -0.358100     48.000000
  0.000000  0.179050  0.537149     24.000000
 -0.089525  0.268575  0.626674     48.000000
  0.805724 -0.626674 -0.268575     48.000000
  0.716199 -0.537149 -0.179050     48.000000
  0.626674 -0.447624 -0.089525     48.000000
  0.537149 -0.358100  0.000000     24.000000
  0.000000  0.179050  0.716199     24.000000
  0.895249 -0.716199 -0.179050     48.000000
  0.805724 -0.626674 -0.089525     48.000000
  0.716199 -0.537149  0.000000     24.000000
  0.984774 -0.805724 -0.089525     24.000000
  0.895249 -0.716199 -0.000000     24.000000
  0.984774 -0.626674 -0.268575     24.000000
  0.895249 -0.537149 -0.179050     48.000000
  0.984774 -0.626674 -0.089525     24.000000
  0.895249 -0.537149  0.000000     24.000000
 


--------------------------------------------------------------------------------------------------------




 Dimension of arrays:
   k-points           NKPTS =     56   k-points in BZ     NKDIM =     56   number of bands    NBANDS=     18
   number of dos      NEDOS =    301   number of ions     NIONS =      2
   non local maximal  LDIM  =      6   non local SUM 2l+1 LMDIM =     18
   total plane-waves  NPLWV =  21952
   max r-space proj   IRMAX =      1   max aug-charges    IRDMAX= 124777
   dimension x,y,z NGX =    28 NGY =   28 NGZ =   28
   dimension x,y,z NGXF=    56 NGYF=   56 NGZF=   56
   support grid    NGXF=   112 NGYF=  112 NGZF=  112
   ions per type =               2
   NGX,Y,Z   is equivalent  to a cutoff of  11.46, 11.46, 11.46 a.u.
   NGXF,Y,Z  is equivalent  to a cutoff of  22.92, 22.92, 22.92 a.u.

 SYSTEM =  unknown system                          
 POSCAR =  cubic diamond Ge                        

 Startparameter for this run:
   NWRITE =      2    write-flag & timer
   PREC   = accura    normal or accurate (medium, high low for compatibility)
   ISTART =      0    job   : 0-new  1-cont  2-samecut
   ICHARG =      2    charge: 1-file 2-atom 10-const
   ISPIN  =      1    spin polarized calculation?
   LNONCOLLINEAR =      F non collinear calculations
   LSORBIT =      F    spin-orbit coupling
   INIWAV =      1    electr: 0-lowe 1-rand  2-diag
   LASPH  =      F    aspherical Exc in radial PAW
 Electronic Relaxation 1
   ENCUT  =  450.0 eV  33.07 Ry    5.75 a.u.   7.03  7.03  7.03*2*pi/ulx,y,z
   ENINI  =  450.0     initial cutoff
   ENAUG  =  531.4 eV  augmentation charge cutoff
   NELM   =     60;   NELMIN=  2; NELMDL=  0     # of ELM steps 
   EDIFF  = 0.1E-05   stopping-criterion for ELM
   LREAL  =      F    real-space projection
   NLSPLINE    = F    spline interpolate recip. space projectors
   LCOMPAT=      F    compatible to vasp.4.4
   GGA_COMPAT  = T    GGA compatible to vasp.4.4-vasp.4.6
   LMAXPAW     = -100 max onsite density
   LMAXMIX     =    2 max onsite mixed and CHGCAR
   VOSKOWN=      0    Vosko Wilk Nusair interpolation
   ROPT   =    0.00000
 Ionic relaxation
   EDIFFG = 0.1E-04   stopping-criterion for IOM
   NSW    =      0    number of steps for IOM
   NBLOCK =      1;   KBLOCK =      1    inner block; outer block 
   IBRION =     -1    ionic relax: 0-MD 1-quasi-New 2-CG
   NFREE  =      0    steps in history (QN), initial steepest desc. (CG)
   ISIF   =      2    stress and relaxation
   IWAVPR =     10    prediction:  0-non 1-charg 2-wave 3-comb
   ISYM   =      2    0-nonsym 1-usesym 2-fastsym
   LCORR  =      T    Harris-Foulkes like correction to forces

   POTIM  = 0.5000    time-step for ionic-motion
   TEIN   =    0.0    initial temperature
   TEBEG  =    0.0;   TEEND  =   0.0 temperature during run
   SMASS  =  -3.00    Nose mass-parameter (am)
   estimated Nose-frequenzy (Omega)   =  0.10E-29 period in steps = 0.13E+47 mass=  -0.377E-27a.u.
   SCALEE = 1.0000    scale energy and forces
   NPACO  =    256;   APACO  = 10.0  distance and # of slots for P.C.
   PSTRESS=    0.0 pullay stress

  Mass of Ions in am
   POMASS =  72.61
  Ionic Valenz
   ZVAL   =  14.00
  Atomic Wigner-Seitz radii
   RWIGS  =  -1.00
  virtual crystal weights 
   VCA    =   1.00
   NELECT =      28.0000    total number of electrons
   NUPDOWN=      -1.0000    fix difference up-down

 DOS related values:
   EMIN   =  10.00;   EMAX   =-10.00  energy-range for DOS
   EFERMI =   0.00
   ISMEAR =     0;   SIGMA  =   0.05  broadening in eV -4-tet -1-fermi 0-gaus

 Electronic relaxation 2 (details)
   IALGO  =     38    algorithm
   LDIAG  =      T    sub-space diagonalisation (order eigenvalues)
   LSUBROT=      F    optimize rotation matrix (better conditioning)
   TURBO    =      0    0=normal 1=particle mesh
   IRESTART =      0    0=no restart 2=restart with 2 vectors
   NREBOOT  =      0    no. of reboots
   NMIN     =      0    reboot dimension
   EREF     =   0.00    reference energy to select bands
   IMIX   =      4    mixing-type and parameters
     AMIX     =   0.40;   BMIX     =  1.00
     AMIX_MAG =   1.60;   BMIX_MAG =  1.00
     AMIN     =   0.10
     WC   =   100.;   INIMIX=   1;  MIXPRE=   1;  MAXMIX= -45

 Intra band minimization:
   WEIMIN = 0.0000     energy-eigenvalue tresh-hold
   EBREAK =  0.14E-07  absolut break condition
   DEPER  =   0.30     relativ break condition  

   TIME   =   0.40     timestep for ELM

  volume/ion in A,a.u.               =      23.70       159.95
  Fermi-wavevector in a.u.,A,eV,Ry     =   1.373588  2.595704 25.670700  1.886743
  Thomas-Fermi vector in A             =   2.499091

 Write flags
   LWAVE        =      T    write WAVECAR
   LDOWNSAMPLE  =      F    k-point downsampling of WAVECAR
   LCHARG       =      T    write CHGCAR
   LVTOT        =      F    write LOCPOT, total local potential
   LVHAR        =      F    write LOCPOT, Hartree potential only
   LELF         =      F    write electronic localiz. function (ELF)
   LORBIT       =      0    0 simple, 1 ext, 2 COOP (PROOUT), +10 PAW based schemes


 Dipole corrections
   LMONO  =      F    monopole corrections only (constant potential shift)
   LDIPOL =      F    correct potential (dipole corrections)
   IDIPOL =      0    1-x, 2-y, 3-z, 4-all directions 
   EPSILON=  1.0000000 bulk dielectric constant

 Exchange correlation treatment:
   GGA     =    --    GGA type
   LEXCH   =     8    internal setting for exchange type
   LIBXC   =     F    Libxc                    
   VOSKOWN =     0    Vosko Wilk Nusair interpolation
   LHFCALC =     F    Hartree Fock is set to
   LHFONE  =     F    Hartree Fock one center treatment
   AEXX    =    0.0000 exact exchange contribution

 Linear response parameters
   LEPSILON=     F    determine dielectric tensor
   LRPA    =     F    only Hartree local field effects (RPA)
   LNABLA  =     F    use nabla operator in PAW spheres
   LVEL    =     F    velocity operator in full k-point grid
   CSHIFT  =0.1000    complex shift for real part using Kramers Kronig
   OMEGAMAX=  -1.0    maximum frequency
   DEG_THRESHOLD= 0.2000000E-02 threshold for treating states as degnerate
   RTIME   =   -0.100 relaxation time in fs
  (WPLASMAI=    0.000 imaginary part of plasma frequency in eV, 0.658/RTIME)
   DFIELD  = 0.0000000 0.0000000 0.0000000 field for delta impulse in time

  Optional k-point grid parameters
   LKPOINTS_OPT  =     F    use optional k-point grid
   KPOINTS_OPT_MODE=     1    mode for optional k-point grid

 Orbital magnetization related:
   ORBITALMAG=     F  switch on orbital magnetization
   LCHIMAG   =     F  perturbation theory with respect to B field
   DQ        =  0.001000  dq finite difference perturbation B field
   LLRAUG    =     F  two centre corrections for induced B field



--------------------------------------------------------------------------------------------------------


 Static calculation
 charge density and potential will be updated during run
 non-spin polarized calculation
 Variant of blocked Davidson
 Davidson routine will perform the subspace rotation
 perform sub-space diagonalisation
    after iterative eigenvector-optimisation
 modified Broyden-mixing scheme, WC =      100.0
 initial mixing is a Kerker type mixing with AMIX =  0.4000 and BMIX =      1.0000
 Hartree-type preconditioning will be used
 using additional bands            4
 reciprocal scheme for non local part
 use partial core corrections
 calculate Harris-corrections to forces   (improved forces if not selfconsistent)
 use gradient corrections 
 use of overlap-Matrix (Vanderbilt PP)
 Gauss-broadening in eV      SIGMA  =   0.05


--------------------------------------------------------------------------------------------------------


  energy-cutoff  :      450.00
  volume of cell :       47.40
      direct lattice vectors                 reciprocal lattice vectors
    -0.000000000  2.872507096  2.872507096    -0.174063974  0.174063974  0.174063974
     2.872507096 -0.000000000  2.872507096     0.174063974 -0.174063974  0.174063974
     2.872507096  2.872507096  0.000000000     0.174063974  0.174063974 -0.174063974

  length of vectors
     4.062338493  4.062338493  4.062338493     0.301487646  0.301487646  0.301487646



 k-points in units of 2pi/SCALE and weight: K-Spacing Value to Generate K-Mesh: 0.03
   0.00000000  0.00000000  0.00000000       0.001
  -0.08952490  0.08952490  0.08952490       0.006
  -0.17904980  0.17904980  0.17904980       0.006
  -0.26857470  0.26857470  0.26857470       0.006
  -0.35809960  0.35809960  0.35809960       0.006
  -0.44762450  0.44762450  0.44762450       0.006
   0.00000000  0.00000000  0.17904980       0.005
  -0.08952490  0.08952490  0.26857470       0.018
  -0.17904980  0.17904980  0.35809960       0.018
  -0.26857470  0.26857470  0.44762450       0.018
  -0.35809960  0.35809960  0.53714940       0.018
   0.53714940 -0.53714940 -0.35809960       0.018
   0.44762450 -0.44762450 -0.26857470       0.018
   0.35809960 -0.35809960 -0.17904980       0.018
   0.26857470 -0.26857470 -0.08952490       0.018
   0.17904980 -0.17904980  0.00000000       0.009
   0.00000000  0.00000000  0.35809960       0.005
  -0.08952490  0.08952490  0.44762450       0.018
  -0.17904980  0.17904980  0.53714940       0.018
  -0.26857470  0.26857470  0.62667430       0.018
   0.62667430 -0.62667430 -0.26857470       0.018
   0.53714940 -0.53714940 -0.17904980       0.018
   0.44762450 -0.44762450 -0.08952490       0.018
   0.35809960 -0.35809960  0.00000000       0.009
   0.00000000  0.00000000  0.53714940       0.005
  -0.08952490  0.08952490  0.62667430       0.018
  -0.17904980  0.17904980  0.71619920       0.018
   0.71619920 -0.71619920 -0.17904980       0.018
   0.62667430 -0.62667430 -0.08952490       0.018
   0.53714940 -0.53714940  0.00000000       0.009
   0.00000000  0.00000000  0.71619920       0.005
  -0.08952490  0.08952490  0.80572410       0.018
   0.80572410 -0.80572410 -0.08952490       0.018
   0.71619920 -0.71619920  0.00000000       0.009
   0.00000000  0.00000000  0.89524900       0.005
   0.89524900 -0.89524900  0.00000000       0.009
   0.00000000  0.17904980  0.35809960       0.018
  -0.08952490  0.26857470  0.44762450       0.036
  -0.17904980  0.35809960  0.53714940       0.036
   0.71619920 -0.53714940 -0.35809960       0.036
   0.00000000  0.17904980  0.53714940       0.018
  -0.08952490  0.26857470  0.62667430       0.036
   0.80572410 -0.62667430 -0.26857470       0.036
   0.71619920 -0.53714940 -0.17904980       0.036
   0.62667430 -0.44762450 -0.08952490       0.036
   0.53714940 -0.35809960  0.00000000       0.018
   0.00000000  0.17904980  0.71619920       0.018
   0.89524900 -0.71619920 -0.17904980       0.036
   0.80572410 -0.62667430 -0.08952490       0.036
   0.71619920 -0.53714940  0.00000000       0.018
   0.98477389 -0.80572410 -0.08952490       0.018
   0.89524900 -0.71619920 -0.00000000       0.018
   0.98477389 -0.62667430 -0.26857470       0.018
   0.89524900 -0.53714940 -0.17904980       0.036
   0.98477389 -0.62667430 -0.08952490       0.018
   0.89524900 -0.53714940  0.00000000       0.018

 k-points in reciprocal lattice and weights: K-Spacing Value to Generate K-Mesh: 0.03
   0.00000000  0.00000000  0.00000000       0.001
   0.09090909  0.00000000  0.00000000       0.006
   0.18181818  0.00000000  0.00000000       0.006
   0.27272727  0.00000000  0.00000000       0.006
   0.36363636  0.00000000  0.00000000       0.006
   0.45454545  0.00000000  0.00000000       0.006
   0.09090909  0.09090909  0.00000000       0.005
   0.18181818  0.09090909  0.00000000       0.018
   0.27272727  0.09090909  0.00000000       0.018
   0.36363636  0.09090909  0.00000000       0.018
   0.45454545  0.09090909  0.00000000       0.018
  -0.45454545  0.09090909  0.00000000       0.018
  -0.36363636  0.09090909  0.00000000       0.018
  -0.27272727  0.09090909  0.00000000       0.018
  -0.18181818  0.09090909  0.00000000       0.018
  -0.09090909  0.09090909  0.00000000       0.009
   0.18181818  0.18181818  0.00000000       0.005
   0.27272727  0.18181818  0.00000000       0.018
   0.36363636  0.18181818  0.00000000       0.018
   0.45454545  0.18181818  0.00000000       0.018
  -0.45454545  0.18181818  0.00000000       0.018
  -0.36363636  0.18181818  0.00000000       0.018
  -0.27272727  0.18181818  0.00000000       0.018
  -0.18181818  0.18181818  0.00000000       0.009
   0.27272727  0.27272727  0.00000000       0.005
   0.36363636  0.27272727  0.00000000       0.018
   0.45454545  0.27272727  0.00000000       0.018
  -0.45454545  0.27272727  0.00000000       0.018
  -0.36363636  0.27272727  0.00000000       0.018
  -0.27272727  0.27272727  0.00000000       0.009
   0.36363636  0.36363636  0.00000000       0.005
   0.45454545  0.36363636  0.00000000       0.018
  -0.45454545  0.36363636  0.00000000       0.018
  -0.36363636  0.36363636  0.00000000       0.009
   0.45454545  0.45454545  0.00000000       0.005
  -0.45454545  0.45454545  0.00000000       0.009
   0.27272727  0.18181818  0.09090909       0.018
   0.36363636  0.18181818  0.09090909       0.036
   0.45454545  0.18181818  0.09090909       0.036
  -0.45454545  0.18181818  0.09090909       0.036
   0.36363636  0.27272727  0.09090909       0.018
   0.45454545  0.27272727  0.09090909       0.036
  -0.45454545  0.27272727  0.09090909       0.036
  -0.36363636  0.27272727  0.09090909       0.036
  -0.27272727  0.27272727  0.09090909       0.036
  -0.18181818  0.27272727  0.09090909       0.018
   0.45454545  0.36363636  0.09090909       0.018
  -0.45454545  0.36363636  0.09090909       0.036
  -0.36363636  0.36363636  0.09090909       0.036
  -0.27272727  0.36363636  0.09090909       0.018
  -0.45454545  0.45454545  0.09090909       0.018
  -0.36363636  0.45454545  0.09090909       0.018
  -0.45454545  0.36363636  0.18181818       0.018
  -0.36363636  0.36363636  0.18181818       0.036
  -0.36363636  0.45454545  0.18181818       0.018
  -0.27272727  0.45454545  0.18181818       0.018

 position of ions in fractional coordinates (direct lattice) 
   0.87500000  0.87500000  0.87500000
   0.12500000  0.12500000  0.12500000

 position of ions in cartesian coordinates  (Angst):
   5.02688742  5.02688742  5.02688742
   0.71812677  0.71812677  0.71812677



--------------------------------------------------------------------------------------------------------


 k-point   1 :   0.0000 0.0000 0.0000  plane waves:     965
 k-point   2 :   0.0909 0.0000 0.0000  plane waves:    1001
 k-point   3 :   0.1818 0.0000 0.0000  plane waves:    1007
 k-point   4 :   0.2727 0.0000 0.0000  plane waves:    1023
 k-point   5 :   0.3636 0.0000 0.0000  plane waves:    1029
 k-point   6 :   0.4545 0.0000 0.0000  plane waves:    1032
 k-point   7 :   0.0909 0.0909 0.0000  plane waves:    1006
 k-point   8 :   0.1818 0.0909 0.0000  plane waves:    1010
 k-point   9 :   0.2727 0.0909 0.0000  plane waves:    1018
 k-point  10 :   0.3636 0.0909 0.0000  plane waves:    1023
 k-point  11 :   0.4545 0.0909 0.0000  plane waves:    1027
 k-point  12 :  -0.4545 0.0909 0.0000  plane waves:    1031
 k-point  13 :  -0.3636 0.0909 0.0000  plane waves:    1029
 k-point  14 :  -0.2727 0.0909 0.0000  plane waves:    1023
 k-point  15 :  -0.1818 0.0909 0.0000  plane waves:    1014
 k-point  16 :  -0.0909 0.0909 0.0000  plane waves:    1001
 k-point  17 :   0.1818 0.1818 0.0000  plane waves:    1010
 k-point  18 :   0.2727 0.1818 0.0000  plane waves:    1019
 k-point  19 :   0.3636 0.1818 0.0000  plane waves:    1030
 k-point  20 :   0.4545 0.1818 0.0000  plane waves:    1027
 k-point  21 :  -0.4545 0.1818 0.0000  plane waves:    1025
 k-point  22 :  -0.3636 0.1818 0.0000  plane waves:    1026
 k-point  23 :  -0.2727 0.1818 0.0000  plane waves:    1031
 k-point  24 :  -0.1818 0.1818 0.0000  plane waves:    1019
 k-point  25 :   0.2727 0.2727 0.0000  plane waves:    1022
 k-point  26 :   0.3636 0.2727 0.0000  plane waves:    1031
 k-point  27 :   0.4545 0.2727 0.0000  plane waves:    1031
 k-point  28 :  -0.4545 0.2727 0.0000  plane waves:    1034
 k-point  29 :  -0.3636 0.2727 0.0000  plane waves:    1035
 k-point  30 :  -0.2727 0.2727 0.0000  plane waves:    1025
 k-point  31 :   0.3636 0.3636 0.0000  plane waves:    1030
 k-point  32 :   0.4545 0.3636 0.0000  plane waves:    1029
 k-point  33 :  -0.4545 0.3636 0.0000  plane waves:    1027
 k-point  34 :  -0.3636 0.3636 0.0000  plane waves:    1031
 k-point  35 :   0.4545 0.4545 0.0000  plane waves:    1026
 k-point  36 :  -0.4545 0.4545 0.0000  plane waves:    1023
 k-point  37 :   0.2727 0.1818 0.0909  plane waves:    1015
 k-point  38 :   0.3636 0.1818 0.0909  plane waves:    1024
 k-point  39 :   0.4545 0.1818 0.0909  plane waves:    1030
 k-point  40 :  -0.4545 0.1818 0.0909  plane waves:    1028
 k-point  41 :   0.3636 0.2727 0.0909  plane waves:    1030
 k-point  42 :   0.4545 0.2727 0.0909  plane waves:    1035
 k-point  43 :  -0.4545 0.2727 0.0909  plane waves:    1039
 k-point  44 :  -0.3636 0.2727 0.0909  plane waves:    1038
 k-point  45 :  -0.2727 0.2727 0.0909  plane waves:    1030
 k-point  46 :  -0.1818 0.2727 0.0909  plane waves:    1027
 k-point  47 :   0.4545 0.3636 0.0909  plane waves:    1030
 k-point  48 :  -0.4545 0.3636 0.0909  plane waves:    1027
 k-point  49 :  -0.3636 0.3636 0.0909  plane waves:    1025
 k-point  50 :  -0.2727 0.3636 0.0909  plane waves:    1031
 k-point  51 :  -0.4545 0.4545 0.0909  plane waves:    1035
 k-point  52 :  -0.3636 0.4545 0.0909  plane waves:    1026
 k-point  53 :  -0.4545 0.3636 0.1818  plane waves:    1034
 k-point  54 :  -0.3636 0.3636 0.1818  plane waves:    1030
 k-point  55 :  -0.3636 0.4545 0.1818  plane waves:    1033
 k-point  56 :  -0.2727 0.4545 0.1818  plane waves:    1038

 maximum and minimum number of plane-waves per node :      1039      965

 maximum number of plane-waves:      1039
 maximum index in each direction: 
   IXMAX=    7   IYMAX=    7   IZMAX=    7
   IXMIN=   -7   IYMIN=   -7   IZMIN=   -7


 serial   3D FFT for wavefunctions
 parallel 3D FFT for charge:
    minimum data exchange during FFTs selected (reduces bandwidth)


 total amount of memory used by VASP MPI-rank0    65458. kBytes
=======================================================================

   base      :      30000. kBytes
   nonl-proj :       8419. kBytes
   fftplans  :      13127. kBytes
   grid      :       5205. kBytes
   one-center:         31. kBytes
   wavefun   :       8676. kBytes

     INWAV:  cpu time      0.0001: real time      0.0001
 Broyden mixing: mesh for mixing (old mesh)
   NGX = 13   NGY = 13   NGZ = 13
  (NGX  = 56   NGY  = 56   NGZ  = 56)
  gives a total of   2197 points

 initial charge density was supplied:
 charge density of overlapping atoms calculated
 number of electron      28.0000000 magnetization 
 keeping initial charge density in first step


--------------------------------------------------------------------------------------------------------


 Maximum index for augmentation-charges        60215 (set IRDMAX)


--------------------------------------------------------------------------------------------------------


 First call to EWALD:  gamma=   0.490
 Maximum number of real-space cells 3x 3x 3
 Maximum number of reciprocal cells 3x 3x 3

    FEWALD:  cpu time      0.0006: real time      0.0006


--------------------------------------- Iteration      1(   1)  ---------------------------------------


    POTLOK:  cpu time      0.0502: real time      0.0502
    SETDIJ:  cpu time      0.0767: real time      0.0767
     EDDAV:  cpu time      1.5189: real time      1.5190
       DOS:  cpu time      0.0007: real time      0.0007
    --------------------------------------------
      LOOP:  cpu time      1.6465: real time      1.6466

 eigenvalue-minimisations  :  2068
 total energy-change (2. order) : 0.1558888E+03  (-0.1437922E+04)
 number of electron      28.0000000 magnetization 
 augmentation part       28.0000000 magnetization 

 Free energy of the ion-electron system (eV)
  ---------------------------------------------------
  alpha Z        PSCENC =       123.61057381
  Ewald energy   TEWEN  =     -2646.37714754
  -Hartree energ DENC   =     -1539.89584927
  -exchange      EXHF   =         0.00000000
  -V(xc)+E(xc)   XCENC  =       145.86279232
  PAW double counting   =      3673.23166740    -4543.15754504
  entropy T*S    EENTRO =        -0.00195079
  eigenvalues    EBANDS =      -249.84880429
  atomic energy  EATOM  =      5192.46507749
  Solvation  Ediel_sol  =         0.00000000
  ---------------------------------------------------
  free energy    TOTEN  =       155.88881408 eV

  energy without entropy =      155.89076487  energy(sigma->0) =      155.88978948


--------------------------------------------------------------------------------------------------------




--------------------------------------- Iteration      1(   2)  ---------------------------------------


     EDDAV:  cpu time      1.2384: real time      1.2397
       DOS:  cpu time      0.0007: real time      0.0007
    --------------------------------------------
      LOOP:  cpu time      1.2391: real time      1.2404

 eigenvalue-minimisations  :  2016
 total energy-change (2. order) :-0.1451666E+03  (-0.1424117E+03)
 number of electron      28.0000000 magnetization 
 augmentation part       28.0000000 magnetization 

 Free energy of the ion-electron system (eV)
  ---------------------------------------------------
  alpha Z        PSCENC =       123.61057381
  Ewald energy   TEWEN  =     -2646.37714754
  -Hartree energ DENC   =     -1539.89584927
  -exchange      EXHF   =         0.00000000
  -V(xc)+E(xc)   XCENC  =       145.86279232
  PAW double counting   =      3673.23166740    -4543.15754504
  entropy T*S    EENTRO =        -0.00012558
  eigenvalues    EBANDS =      -395.01721163
  atomic energy  EATOM  =      5192.46507749
  Solvation  Ediel_sol  =         0.00000000
  ---------------------------------------------------
  free energy    TOTEN  =        10.72223196 eV

  energy without entropy =       10.72235754  energy(sigma->0) =       10.72229475


--------------------------------------------------------------------------------------------------------




--------------------------------------- Iteration      1(   3)  ---------------------------------------


     EDDAV:  cpu time      1.3102: real time      1.3103
       DOS:  cpu time      0.0006: real time      0.0006
    --------------------------------------------
      LOOP:  cpu time      1.3108: real time      1.3109

 eigenvalue-minimisations  :  2190
 total energy-change (2. order) :-0.1925025E+02  (-0.1914380E+02)
 number of electron      28.0000000 magnetization 
 augmentation part       28.0000000 magnetization 

 Free energy of the ion-electron system (eV)
  ---------------------------------------------------
  alpha Z        PSCENC =       123.61057381
  Ewald energy   TEWEN  =     -2646.37714754
  -Hartree energ DENC   =     -1539.89584927
  -exchange      EXHF   =         0.00000000
  -V(xc)+E(xc)   XCENC  =       145.86279232
  PAW double counting   =      3673.23166740    -4543.15754504
  entropy T*S    EENTRO =        -0.00002331
  eigenvalues    EBANDS =      -414.26756528
  atomic energy  EATOM  =      5192.46507749
  Solvation  Ediel_sol  =         0.00000000
  ---------------------------------------------------
  free energy    TOTEN  =        -8.52801943 eV

  energy without entropy =       -8.52799612  energy(sigma->0) =       -8.52800777


--------------------------------------------------------------------------------------------------------




--------------------------------------- Iteration      1(   4)  ---------------------------------------


     EDDAV:  cpu time      1.4060: real time      1.4061
       DOS:  cpu time      0.0007: real time      0.0007
    --------------------------------------------
      LOOP:  cpu time      1.4066: real time      1.4068

 eigenvalue-minimisations  :  2358
 total energy-change (2. order) :-0.5701261E+00  (-0.5691041E+00)
 number of electron      28.0000000 magnetization 
 augmentation part       28.0000000 magnetization 

 Free energy of the ion-electron system (eV)
  ---------------------------------------------------
  alpha Z        PSCENC =       123.61057381
  Ewald energy   TEWEN  =     -2646.37714754
  -Hartree energ DENC   =     -1539.89584927
  -exchange      EXHF   =         0.00000000
  -V(xc)+E(xc)   XCENC  =       145.86279232
  PAW double counting   =      3673.23166740    -4543.15754504
  entropy T*S    EENTRO =        -0.00005825
  eigenvalues    EBANDS =      -414.83765641
  atomic energy  EATOM  =      5192.46507749
  Solvation  Ediel_sol  =         0.00000000
  ---------------------------------------------------
  free energy    TOTEN  =        -9.09814549 eV

  energy without entropy =       -9.09808724  energy(sigma->0) =       -9.09811637


--------------------------------------------------------------------------------------------------------




--------------------------------------- Iteration      1(   5)  ---------------------------------------


     EDDAV:  cpu time      1.4770: real time      1.4771
       DOS:  cpu time      0.0006: real time      0.0006
    CHARGE:  cpu time      0.1693: real time      0.1693
    MIXING:  cpu time      0.0007: real time      0.0007
    --------------------------------------------
      LOOP:  cpu time      1.6476: real time      1.6477

 eigenvalue-minimisations  :  2234
 total energy-change (2. order) :-0.8921600E-02  (-0.8917390E-02)
 number of electron      28.0000001 magnetization 
 augmentation part       16.8353432 magnetization 

 Broyden mixing:
  rms(total) = 0.30000E+00    rms(broyden)= 0.29994E+00
  rms(prec ) = 0.65935E+00
  weight for this iteration     100.00

 Free energy of the ion-electron system (eV)
  ---------------------------------------------------
  alpha Z        PSCENC =       123.61057381
  Ewald energy   TEWEN  =     -2646.37714754
  -Hartree energ DENC   =     -1539.89584927
  -exchange      EXHF   =         0.00000000
  -V(xc)+E(xc)   XCENC  =       145.86279232
  PAW double counting   =      3673.23166740    -4543.15754504
  entropy T*S    EENTRO =        -0.00005852
  eigenvalues    EBANDS =      -414.84657774
  atomic energy  EATOM  =      5192.46507749
  Solvation  Ediel_sol  =         0.00000000
  ---------------------------------------------------
  free energy    TOTEN  =        -9.10706709 eV

  energy without entropy =       -9.10700857  energy(sigma->0) =       -9.10703783


--------------------------------------------------------------------------------------------------------




--------------------------------------- Iteration      1(   6)  ---------------------------------------


    POTLOK:  cpu time      0.0449: real time      0.0450
    SETDIJ:  cpu time      0.0802: real time      0.0804
     EDDAV:  cpu time      1.4825: real time      1.4836
       DOS:  cpu time      0.0007: real time      0.0007
    CHARGE:  cpu time      0.2126: real time      0.2127
    MIXING:  cpu time      0.0026: real time      0.0036
    --------------------------------------------
      LOOP:  cpu time      1.8237: real time      1.8259

 eigenvalue-minimisations  :  2168
 total energy-change (2. order) : 0.4882648E-01  (-0.2050174E-02)
 number of electron      28.0000001 magnetization 
 augmentation part       16.8448181 magnetization 

 Broyden mixing:
  rms(total) = 0.17939E+00    rms(broyden)= 0.17939E+00
  rms(prec ) = 0.40266E+00
  weight for this iteration     100.00

 eigenvalues of (default mixing * dielectric matrix)
  average eigenvalue GAMMA=   2.4661
  2.4661

 Free energy of the ion-electron system (eV)
  ---------------------------------------------------
  alpha Z        PSCENC =       123.61057381
  Ewald energy   TEWEN  =     -2646.37714754
  -Hartree energ DENC   =     -1539.51846981
  -exchange      EXHF   =         0.00000000
  -V(xc)+E(xc)   XCENC  =       145.71720485
  PAW double counting   =      3976.05929775    -4847.64283980
  entropy T*S    EENTRO =        -0.00006609
  eigenvalues    EBANDS =      -413.37187127
  atomic energy  EATOM  =      5192.46507749
  Solvation  Ediel_sol  =         0.00000000
  ---------------------------------------------------
  free energy    TOTEN  =        -9.05824061 eV

  energy without entropy =       -9.05817452  energy(sigma->0) =       -9.05820757


--------------------------------------------------------------------------------------------------------




--------------------------------------- Iteration      1(   7)  ---------------------------------------


    POTLOK:  cpu time      0.0460: real time      0.0460
    SETDIJ:  cpu time      0.0977: real time      0.0977
     EDDAV:  cpu time      1.3071: real time      1.3071
       DOS:  cpu time      0.0007: real time      0.0007
    CHARGE:  cpu time      0.1732: real time      0.1732
    MIXING:  cpu time      0.0008: real time      0.0008
    --------------------------------------------
      LOOP:  cpu time      1.6254: real time      1.6255

 eigenvalue-minimisations  :  2106
 total energy-change (2. order) : 0.2655594E-01  (-0.5013859E-02)
 number of electron      28.0000001 magnetization 
 augmentation part       16.8581827 magnetization 

 Broyden mixing:
  rms(total) = 0.14963E-01    rms(broyden)= 0.14960E-01
  rms(prec ) = 0.29612E-01
  weight for this iteration     100.00

 eigenvalues of (default mixing * dielectric matrix)
  average eigenvalue GAMMA=   2.4146
  2.4146  2.4146

 Free energy of the ion-electron system (eV)
  ---------------------------------------------------
  alpha Z        PSCENC =       123.61057381
  Ewald energy   TEWEN  =     -2646.37714754
  -Hartree energ DENC   =     -1539.67227627
  -exchange      EXHF   =         0.00000000
  -V(xc)+E(xc)   XCENC  =       145.54897669
  PAW double counting   =      4469.31536080    -5343.93104676
  entropy T*S    EENTRO =        -0.00011672
  eigenvalues    EBANDS =      -409.99108618
  atomic energy  EATOM  =      5192.46507749
  Solvation  Ediel_sol  =         0.00000000
  ---------------------------------------------------
  free energy    TOTEN  =        -9.03168467 eV

  energy without entropy =       -9.03156795  energy(sigma->0) =       -9.03162631


--------------------------------------------------------------------------------------------------------




--------------------------------------- Iteration      1(   8)  ---------------------------------------


    POTLOK:  cpu time      0.0398: real time      0.0398
    SETDIJ:  cpu time      0.0693: real time      0.0693
     EDDAV:  cpu time      1.5101: real time      1.5103
       DOS:  cpu time      0.0006: real time      0.0006
    CHARGE:  cpu time      0.1760: real time      0.1760
    MIXING:  cpu time      0.0012: real time      0.0018
    --------------------------------------------
      LOOP:  cpu time      1.7970: real time      1.7978

 eigenvalue-minimisations  :  2280
 total energy-change (2. order) :-0.1706491E-02  (-0.6244040E-03)
 number of electron      28.0000001 magnetization 
 augmentation part       16.8558156 magnetization 

 Broyden mixing:
  rms(total) = 0.45471E-02    rms(broyden)= 0.45465E-02
  rms(prec ) = 0.10827E-01
  weight for this iteration     100.00

 eigenvalues of (default mixing * dielectric matrix)
  average eigenvalue GAMMA=   2.1624
  2.9352  1.6217  1.9302

 Free energy of the ion-electron system (eV)
  ---------------------------------------------------
  alpha Z        PSCENC =       123.61057381
  Ewald energy   TEWEN  =     -2646.37714754
  -Hartree energ DENC   =     -1540.37992604
  -exchange      EXHF   =         0.00000000
  -V(xc)+E(xc)   XCENC  =       145.58015318
  PAW double counting   =      4433.62995443    -5308.75356280
  entropy T*S    EENTRO =        -0.00010453
  eigenvalues    EBANDS =      -408.80840917
  atomic energy  EATOM  =      5192.46507749
  Solvation  Ediel_sol  =         0.00000000
  ---------------------------------------------------
  free energy    TOTEN  =        -9.03339116 eV

  energy without entropy =       -9.03328663  energy(sigma->0) =       -9.03333889


--------------------------------------------------------------------------------------------------------




--------------------------------------- Iteration      1(   9)  ---------------------------------------


    POTLOK:  cpu time      0.0380: real time      0.0380
    SETDIJ:  cpu time      0.0769: real time      0.0769
     EDDAV:  cpu time      1.7758: real time      1.7759
       DOS:  cpu time      0.0008: real time      0.0008
    CHARGE:  cpu time      0.1687: real time      0.1687
    MIXING:  cpu time      0.0011: real time      0.0011
    --------------------------------------------
      LOOP:  cpu time      2.0612: real time      2.0613

 eigenvalue-minimisations  :  2590
 total energy-change (2. order) :-0.4989061E-04  (-0.3131635E-04)
 number of electron      28.0000001 magnetization 
 augmentation part       16.8570495 magnetization 

 Broyden mixing:
  rms(total) = 0.20129E-02    rms(broyden)= 0.20118E-02
  rms(prec ) = 0.45746E-02
  weight for this iteration     100.00

 eigenvalues of (default mixing * dielectric matrix)
  average eigenvalue GAMMA=   2.0530
  3.1541  2.3834  1.7954  0.8792

 Free energy of the ion-electron system (eV)
  ---------------------------------------------------
  alpha Z        PSCENC =       123.61057381
  Ewald energy   TEWEN  =     -2646.37714754
  -Hartree energ DENC   =     -1540.24689752
  -exchange      EXHF   =         0.00000000
  -V(xc)+E(xc)   XCENC  =       145.57090232
  PAW double counting   =      4443.09344611    -5318.00314906
  entropy T*S    EENTRO =        -0.00010393
  eigenvalues    EBANDS =      -409.14614273
  atomic energy  EATOM  =      5192.46507749
  Solvation  Ediel_sol  =         0.00000000
  ---------------------------------------------------
  free energy    TOTEN  =        -9.03344105 eV

  energy without entropy =       -9.03333712  energy(sigma->0) =       -9.03338908


--------------------------------------------------------------------------------------------------------




--------------------------------------- Iteration      1(  10)  ---------------------------------------


    POTLOK:  cpu time      0.0520: real time      0.0520
    SETDIJ:  cpu time      0.0824: real time      0.0865
     EDDAV:  cpu time      1.6226: real time      1.6227
       DOS:  cpu time      0.0010: real time      0.0010
    CHARGE:  cpu time      0.1823: real time      0.1824
    MIXING:  cpu time      0.0014: real time      0.0014
    --------------------------------------------
      LOOP:  cpu time      1.9418: real time      1.9460

 eigenvalue-minimisations  :  2554
 total energy-change (2. order) :-0.3300652E-04  (-0.7377579E-05)
 number of electron      28.0000001 magnetization 
 augmentation part       16.8573489 magnetization 

 Broyden mixing:
  rms(total) = 0.55813E-03    rms(broyden)= 0.55438E-03
  rms(prec ) = 0.14708E-02
  weight for this iteration     100.00

 eigenvalues of (default mixing * dielectric matrix)
  average eigenvalue GAMMA=   2.0165
  3.1643  2.2626  2.2626  1.0781  1.3149

 Free energy of the ion-electron system (eV)
  ---------------------------------------------------
  alpha Z        PSCENC =       123.61057381
  Ewald energy   TEWEN  =     -2646.37714754
  -Hartree energ DENC   =     -1540.26652576
  -exchange      EXHF   =         0.00000000
  -V(xc)+E(xc)   XCENC  =       145.57147092
  PAW double counting   =      4439.46899163    -5314.28576123
  entropy T*S    EENTRO =        -0.00010172
  eigenvalues    EBANDS =      -409.22005166
  atomic energy  EATOM  =      5192.46507749
  Solvation  Ediel_sol  =         0.00000000
  ---------------------------------------------------
  free energy    TOTEN  =        -9.03347406 eV

  energy without entropy =       -9.03337233  energy(sigma->0) =       -9.03342320


--------------------------------------------------------------------------------------------------------




--------------------------------------- Iteration      1(  11)  ---------------------------------------


    POTLOK:  cpu time      0.0437: real time      0.0437
    SETDIJ:  cpu time      0.0968: real time      0.0968
     EDDAV:  cpu time      1.6563: real time      1.6564
       DOS:  cpu time      0.0007: real time      0.0007
    CHARGE:  cpu time      0.1619: real time      0.1620
    MIXING:  cpu time      0.0010: real time      0.0010
    --------------------------------------------
      LOOP:  cpu time      1.9603: real time      1.9604

 eigenvalue-minimisations  :  2568
 total energy-change (2. order) :-0.1406412E-05  (-0.7326401E-06)
 number of electron      28.0000001 magnetization 
 augmentation part       16.8572000 magnetization 

 Broyden mixing:
  rms(total) = 0.17162E-03    rms(broyden)= 0.15929E-03
  rms(prec ) = 0.34887E-03
  weight for this iteration     100.00

 eigenvalues of (default mixing * dielectric matrix)
  average eigenvalue GAMMA=   1.9856
  3.2981  2.7231  2.3851  1.0095  1.2491  1.2491

 Free energy of the ion-electron system (eV)
  ---------------------------------------------------
  alpha Z        PSCENC =       123.61057381
  Ewald energy   TEWEN  =     -2646.37714754
  -Hartree energ DENC   =     -1540.32614435
  -exchange      EXHF   =         0.00000000
  -V(xc)+E(xc)   XCENC  =       145.57362616
  PAW double counting   =      4439.83856441    -5314.69064958
  entropy T*S    EENTRO =        -0.00010161
  eigenvalues    EBANDS =      -409.12727425
  atomic energy  EATOM  =      5192.46507749
  Solvation  Ediel_sol  =         0.00000000
  ---------------------------------------------------
  free energy    TOTEN  =        -9.03347546 eV

  energy without entropy =       -9.03337385  energy(sigma->0) =       -9.03342466


--------------------------------------------------------------------------------------------------------




--------------------------------------- Iteration      1(  12)  ---------------------------------------


    POTLOK:  cpu time      0.0481: real time      0.0481
    SETDIJ:  cpu time      0.0727: real time      0.0727
     EDDAV:  cpu time      1.0228: real time      1.0228
       DOS:  cpu time      0.0007: real time      0.0007
    --------------------------------------------
      LOOP:  cpu time      1.1443: real time      1.1443

 eigenvalue-minimisations  :  1550
 total energy-change (2. order) :-0.1219205E-06  (-0.5728746E-07)
 number of electron      28.0000001 magnetization 
 augmentation part       16.8572000 magnetization 

 Free energy of the ion-electron system (eV)
  ---------------------------------------------------
  alpha Z        PSCENC =       123.61057381
  Ewald energy   TEWEN  =     -2646.37714754
  -Hartree energ DENC   =     -1540.32853926
  -exchange      EXHF   =         0.00000000
  -V(xc)+E(xc)   XCENC  =       145.57367057
  PAW double counting   =      4439.71597247    -5314.55466182
  entropy T*S    EENTRO =        -0.00010148
  eigenvalues    EBANDS =      -409.13831983
  atomic energy  EATOM  =      5192.46507749
  Solvation  Ediel_sol  =         0.00000000
  ---------------------------------------------------
  free energy    TOTEN  =        -9.03347559 eV

  energy without entropy =       -9.03337410  energy(sigma->0) =       -9.03342484


--------------------------------------------------------------------------------------------------------




 average (electrostatic) potential at core
  the test charge radii are     0.9911
  (the norm of the test charge is              1.0000)
       1 -74.7436       2 -74.7436



 E-fermi :   4.5586     XC(G=0):  -9.7085     alpha+bet : -9.9484

 Fermi energy:         4.5586404472

 k-point     1 :       0.0000    0.0000    0.0000
  band No.  band energies     occupation 
      1     -20.2007      2.00000
      2     -20.2007      2.00000
      3     -20.2007      2.00000
      4     -20.1685      2.00000
      5     -20.1685      2.00000
      6     -19.9809      2.00000
      7     -19.9809      2.00000
      8     -19.9809      2.00000
      9     -19.9718      2.00000
     10     -19.9718      2.00000
     11      -7.8764      2.00000
     12       4.1755      2.00000
     13       4.5539      1.10689
     14       4.5539      1.10656
     15       4.5539      1.10656
     16       7.0872      0.00000
     17       7.0872      0.00000
     18       7.0872      0.00000

 k-point     2 :       0.0909    0.0000    0.0000
  band No.  band energies     occupation 
      1     -20.2052      2.00000
      2     -20.2052      2.00000
      3     -20.1996      2.00000
      4     -20.1628      2.00000
      5     -20.1628      2.00000
      6     -19.9888      2.00000
      7     -19.9888      2.00000
      8     -19.9826      2.00000
      9     -19.9651      2.00000
     10     -19.9651      2.00000
     11      -7.7798      2.00000
     12       2.7566      2.00000
     13       4.3713      2.00000
     14       4.3713      2.00000
     15       5.3316      0.00000
     16       7.3332      0.00000
     17       7.3332      0.00000
     18       7.5019      0.00000

 k-point     3 :       0.1818    0.0000    0.0000
  band No.  band energies     occupation 
      1     -20.2125      2.00000
      2     -20.2125      2.00000
      3     -20.1964      2.00000
      4     -20.1515      2.00000
      5     -20.1515      2.00000
      6     -19.9991      2.00000
      7     -19.9991      2.00000
      8     -19.9864      2.00000
      9     -19.9571      2.00000
     10     -19.9571      2.00000
     11      -7.4947      2.00000
     12       1.0826      2.00000
     13       3.9969      2.00000
     14       3.9969      2.00000
     15       5.2977      0.00000
     16       7.8275      0.00000
     17       7.8275      0.00000
     18       8.7696      0.00000

 k-point     4 :       0.2727    0.0000    0.0000
  band No.  band energies     occupation 
      1     -20.2183      2.00000
      2     -20.2183      2.00000
      3     -20.1921      2.00000
      4     -20.1413      2.00000
      5     -20.1413      2.00000
      6     -20.0072      2.00000
      7     -20.0072      2.00000
      8     -19.9915      2.00000
      9     -19.9513      2.00000
     10     -19.9513      2.00000
     11      -7.0400      2.00000
     12      -0.4874      2.00000
     13       3.6356      2.00000
     14       3.6357      2.00000
     15       5.0015      0.00000
     16       8.1939      0.00000
     17       8.1940      0.00000
     18      10.3307      0.00000

 k-point     5 :       0.3636    0.0000    0.0000
  band No.  band energies     occupation 
      1     -20.2215      2.00000
      2     -20.2215      2.00000
      3     -20.1879      2.00000
      4     -20.1347      2.00000
      5     -20.1347      2.00000
      6     -20.0121      2.00000
      7     -20.0120      2.00000
      8     -19.9963      2.00000
      9     -19.9478      2.00000
     10     -19.9478      2.00000
     11      -6.4729      2.00000
     12      -1.8239      2.00000
     13       3.3720      2.00000
     14       3.3720      2.00000
     15       4.7524      0.00000
     16       8.2976      0.00000
     17       8.2976      0.00000
     18      11.6695      0.00000

 k-point     6 :       0.4545    0.0000    0.0000
  band No.  band energies     occupation 
      1     -20.2228      2.00000
      2     -20.2228      2.00000
      3     -20.1853      2.00000
      4     -20.1318      2.00000
      5     -20.1318      2.00000
      6     -20.0139      2.00000
      7     -20.0139      2.00000
      8     -19.9992      2.00000
      9     -19.9463      2.00000
     10     -19.9463      2.00000
     11      -5.9816      2.00000
     12      -2.7067      2.00000
     13       3.2355      2.00000
     14       3.2355      2.00000
     15       4.6195      0.08500
     16       8.2819      0.00000
     17       8.2819      0.00000
     18      11.6820      0.00000

 k-point     7 :       0.0909    0.0909    0.0000
  band No.  band energies     occupation 
      1     -20.2054      2.00000
      2     -20.2037      2.00000
      3     -20.2037      2.00000
      4     -20.1645      2.00000
      5     -20.1566      2.00000
      6     -20.0013      2.00000
      7     -19.9771      2.00000
      8     -19.9771      2.00000
      9     -19.9757      2.00000
     10     -19.9608      2.00000
     11      -7.7473      2.00000
     12       2.6703      2.00000
     13       4.0499      2.00000
     14       4.0499      2.00000
     15       5.9994      0.00000
     16       6.7145      0.00000
     17       7.7552      0.00000
     18       7.7552      0.00000

 k-point     8 :       0.1818    0.0909    0.0000
  band No.  band energies     occupation 
      1     -20.2133      2.00000
      2     -20.2088      2.00000
      3     -20.2005      2.00000
      4     -20.1567      2.00000
      5     -20.1445      2.00000
      6     -20.0144      2.00000
      7     -19.9874      2.00000
      8     -19.9772      2.00000
      9     -19.9660      2.00000
     10     -19.9547      2.00000
     11      -7.5240      2.00000
     12       1.4225      2.00000
     13       3.6359      2.00000
     14       3.6740      2.00000
     15       6.2623      0.00000
     16       6.8379      0.00000
     17       8.3527      0.00000
     18       8.6503      0.00000

 k-point     9 :       0.2727    0.0909    0.0000
  band No.  band energies     occupation 
      1     -20.2213      2.00000
      2     -20.2150      2.00000
      3     -20.1939      2.00000
      4     -20.1463      2.00000
      5     -20.1330      2.00000
      6     -20.0243      2.00000
      7     -19.9977      2.00000
      8     -19.9836      2.00000
      9     -19.9575      2.00000
     10     -19.9475      2.00000
     11      -7.1226      2.00000
     12      -0.0648      2.00000
     13       3.2209      2.00000
     14       3.2890      2.00000
     15       5.9948      0.00000
     16       7.4425      0.00000
     17       8.7854      0.00000
     18       9.6368      0.00000

 k-point    10 :       0.3636    0.0909    0.0000
  band No.  band energies     occupation 
      1     -20.2268      2.00000
      2     -20.2197      2.00000
      3     -20.1861      2.00000
      4     -20.1372      2.00000
      5     -20.1260      2.00000
      6     -20.0286      2.00000
      7     -20.0065      2.00000
      8     -19.9924      2.00000
      9     -19.9512      2.00000
     10     -19.9421      2.00000
     11      -6.5818      2.00000
     12      -1.4397      2.00000
     13       2.8053      2.00000
     14       3.0723      2.00000
     15       5.7069      0.00000
     16       7.8711      0.00000
     17       8.8716      0.00000
     18      10.5632      0.00000

 k-point    11 :       0.4545    0.0909    0.0000
  band No.  band energies     occupation 
      1     -20.2294      2.00000
      2     -20.2229      2.00000
      3     -20.1795      2.00000
      4     -20.1304      2.00000
      5     -20.1250      2.00000
      6     -20.0261      2.00000
      7     -20.0137      2.00000
      8     -20.0009      2.00000
      9     -19.9465      2.00000
     10     -19.9394      2.00000
     11      -6.0269      2.00000
     12      -2.4897      2.00000
     13       2.5036      2.00000
     14       3.0067      2.00000
     15       5.5101      0.00000
     16       8.0362      0.00000
     17       8.7403      0.00000
     18      11.5821      0.00000

 k-point    12 :      -0.4545    0.0909    0.0000
  band No.  band energies     occupation 
      1     -20.2293      2.00000
      2     -20.2249      2.00000
      3     -20.1766      2.00000
      4     -20.1285      2.00000
      5     -20.1259      2.00000
      6     -20.0196      2.00000
      7     -20.0184      2.00000
      8     -20.0065      2.00000
      9     -19.9436      2.00000
     10     -19.9399      2.00000
     11      -5.8199      2.00000
     12      -2.8214      2.00000
     13       2.3454      2.00000
     14       3.0933      2.00000
     15       5.4376      0.00000
     16       8.1621      0.00000
     17       8.5744      0.00000
     18      11.9727      0.00000

 k-point    13 :      -0.3636    0.0909    0.0000
  band No.  band energies     occupation 
      1     -20.2267      2.00000
      2     -20.2254      2.00000
      3     -20.1788      2.00000
      4     -20.1340      2.00000
      5     -20.1249      2.00000
      6     -20.0227      2.00000
      7     -20.0118      2.00000
      8     -20.0041      2.00000
      9     -19.9437      2.00000
     10     -19.9426      2.00000
     11      -6.1996      2.00000
     12      -2.1900      2.00000
     13       2.3478      2.00000
     14       3.3202      2.00000
     15       5.4950      0.00000
     16       8.3306      0.00000
     17       8.4231      0.00000
     18      11.6377      0.00000

 k-point    14 :      -0.2727    0.0909    0.0000
  band No.  band energies     occupation 
      1     -20.2238      2.00000
      2     -20.2216      2.00000
      3     -20.1853      2.00000
      4     -20.1408      2.00000
      5     -20.1293      2.00000
      6     -20.0207      2.00000
      7     -20.0091      2.00000
      8     -19.9925      2.00000
      9     -19.9506      2.00000
     10     -19.9441      2.00000
     11      -6.7748      2.00000
     12      -1.0029      2.00000
     13       2.5257      2.00000
     14       3.6598      2.00000
     15       5.6662      0.00000
     16       8.1988      0.00000
     17       8.4149      0.00000
     18      10.4620      0.00000

 k-point    15 :      -0.1818    0.0909    0.0000
  band No.  band energies     occupation 
      1     -20.2193      2.00000
      2     -20.2143      2.00000
      3     -20.1931      2.00000
      4     -20.1492      2.00000
      5     -20.1393      2.00000
      6     -20.0130      2.00000
      7     -20.0035      2.00000
      8     -19.9807      2.00000
      9     -19.9603      2.00000
     10     -19.9484      2.00000
     11      -7.2761      2.00000
     12       0.4142      2.00000
     13       2.9027      2.00000
     14       4.0536      2.00000
     15       5.8794      0.00000
     16       7.7949      0.00000
     17       8.0496      0.00000
     18       9.4383      0.00000

 k-point    16 :      -0.0909    0.0909    0.0000
  band No.  band energies     occupation 
      1     -20.2123      2.00000
      2     -20.2067      2.00000
      3     -20.1990      2.00000
      4     -20.1582      2.00000
      5     -20.1521      2.00000
      6     -20.0016      2.00000
      7     -19.9951      2.00000
      8     -19.9727      2.00000
      9     -19.9708      2.00000
     10     -19.9556      2.00000
     11      -7.6200      2.00000
     12       1.8097      2.00000
     13       3.5443      2.00000
     14       4.3657      2.00000
     15       5.8357      0.00000
     16       7.3780      0.00000
     17       7.4640      0.00000
     18       8.4823      0.00000

 k-point    17 :       0.1818    0.1818    0.0000
  band No.  band energies     occupation 
      1     -20.2109      2.00000
      2     -20.2109      2.00000
      3     -20.2084      2.00000
      4     -20.1524      2.00000
      5     -20.1309      2.00000
      6     -20.0323      2.00000
      7     -19.9868      2.00000
      8     -19.9664      2.00000
      9     -19.9664      2.00000
     10     -19.9565      2.00000
     11      -7.3625      2.00000
     12       1.0227      2.00000
     13       3.2011      2.00000
     14       3.2011      2.00000
     15       6.0436      0.00000
     16       7.1557      0.00000
     17       9.0856      0.00000
     18       9.0856      0.00000

 k-point    18 :       0.2727    0.1818    0.0000
  band No.  band energies     occupation 
      1     -20.2208      2.00000
      2     -20.2159      2.00000
      3     -20.2002      2.00000
      4     -20.1428      2.00000
      5     -20.1170      2.00000
      6     -20.0471      2.00000
      7     -19.9968      2.00000
      8     -19.9709      2.00000
      9     -19.9583      2.00000
     10     -19.9493      2.00000
     11      -7.0177      2.00000
     12      -0.0161      2.00000
     13       2.6975      2.00000
     14       2.8431      2.00000
     15       6.0977      0.00000
     16       7.2452      0.00000
     17       9.5203      0.00000
     18       9.6959      0.00000

 k-point    19 :       0.3636    0.1818    0.0000
  band No.  band energies     occupation 
      1     -20.2302      2.00000
      2     -20.2209      2.00000
      3     -20.1877      2.00000
      4     -20.1322      2.00000
      5     -20.1075      2.00000
      6     -20.0555      2.00000
      7     -20.0083      2.00000
      8     -19.9843      2.00000
      9     -19.9504      2.00000
     10     -19.9391      2.00000
     11      -6.5157      2.00000
     12      -1.2168      2.00000
     13       2.1057      2.00000
     14       2.6264      2.00000
     15       6.2306      0.00000
     16       7.6862      0.00000
     17       9.4651      0.00000
     18       9.9079      0.00000

 k-point    20 :       0.4545    0.1818    0.0000
  band No.  band energies     occupation 
      1     -20.2367      2.00000
      2     -20.2249      2.00000
      3     -20.1746      2.00000
      4     -20.1223      2.00000
      5     -20.1062      2.00000
      6     -20.0544      2.00000
      7     -20.0193      2.00000
      8     -19.9986      2.00000
      9     -19.9442      2.00000
     10     -19.9319      2.00000
     11      -5.9373      2.00000
     12      -2.2878      2.00000
     13       1.6150      2.00000
     14       2.5747      2.00000
     15       6.1462      0.00000
     16       8.2733      0.00000
     17       9.7682      0.00000
     18       9.9487      0.00000

 k-point    21 :      -0.4545    0.1818    0.0000
  band No.  band energies     occupation 
      1     -20.2394      2.00000
      2     -20.2278      2.00000
      3     -20.1652      2.00000
      4     -20.1142      2.00000
      5     -20.1129      2.00000
      6     -20.0444      2.00000
      7     -20.0293      2.00000
      8     -20.0095      2.00000
      9     -19.9398      2.00000
     10     -19.9291      2.00000
     11      -5.5570      2.00000
     12      -2.8695      2.00000
     13       1.2991      2.00000
     14       2.6906      2.00000
     15       6.1171      0.00000
     16       8.4491      0.00000
     17       9.5007      0.00000
     18      11.2374      0.00000

 k-point    22 :      -0.3636    0.1818    0.0000
  band No.  band energies     occupation 
      1     -20.2378      2.00000
      2     -20.2293      2.00000
      3     -20.1630      2.00000
      4     -20.1243      2.00000
      5     -20.1103      2.00000
      6     -20.0358      2.00000
      7     -20.0284      2.00000
      8     -20.0144      2.00000
      9     -19.9378      2.00000
     10     -19.9315      2.00000
     11      -5.7819      2.00000
     12      -2.5324      2.00000
     13       1.1949      2.00000
     14       2.9598      2.00000
     15       6.1986      0.00000
     16       8.5914      0.00000
     17       9.1982      0.00000
     18      11.5127      0.00000

 k-point    23 :      -0.2727    0.1818    0.0000
  band No.  band energies     occupation 
      1     -20.2320      2.00000
      2     -20.2287      2.00000
      3     -20.1697      2.00000
      4     -20.1350      2.00000
      5     -20.1140      2.00000
      6     -20.0349      2.00000
      7     -20.0160      2.00000
      8     -20.0074      2.00000
      9     -19.9392      2.00000
     10     -19.9384      2.00000
     11      -6.3432      2.00000
     12      -1.5797      2.00000
     13       1.3544      2.00000
     14       3.3455      2.00000
     15       6.3452      0.00000
     16       8.7608      0.00000
     17       8.7948      0.00000
     18      10.1550      0.00000

 k-point    24 :      -0.1818    0.1818    0.0000
  band No.  band energies     occupation 
      1     -20.2252      2.00000
      2     -20.2230      2.00000
      3     -20.1823      2.00000
      4     -20.1428      2.00000
      5     -20.1251      2.00000
      6     -20.0261      2.00000
      7     -20.0110      2.00000
      8     -19.9898      2.00000
      9     -19.9508      2.00000
     10     -19.9420      2.00000
     11      -6.8802      2.00000
     12      -0.4964      2.00000
     13       1.8867      2.00000
     14       3.7665      2.00000
     15       6.3721      0.00000
     16       8.2403      0.00000
     17       8.4314      0.00000
     18       9.5870      0.00000

 k-point    25 :       0.2727    0.2727    0.0000
  band No.  band energies     occupation 
      1     -20.2196      2.00000
      2     -20.2196      2.00000
      3     -20.2038      2.00000
      4     -20.1334      2.00000
      5     -20.0996      2.00000
      6     -20.0676      2.00000
      7     -20.0046      2.00000
      8     -19.9625      2.00000
      9     -19.9531      2.00000
     10     -19.9531      2.00000
     11      -6.7289      2.00000
     12      -0.5734      2.00000
     13       2.4612      2.00000
     14       2.4612      2.00000
     15       5.4955      0.00000
     16       7.0338      0.00000
     17      10.5996      0.00000
     18      10.5996      0.00000

 k-point    26 :       0.3636    0.2727    0.0000
  band No.  band energies     occupation 
      1     -20.2281      2.00000
      2     -20.2238      2.00000
      3     -20.1921      2.00000
      4     -20.1219      2.00000
      5     -20.0859      2.00000
      6     -20.0820      2.00000
      7     -20.0162      2.00000
      8     -19.9766      2.00000
      9     -19.9464      2.00000
     10     -19.9415      2.00000
     11      -6.2724      2.00000
     12      -1.4539      2.00000
     13       1.9382      2.00000
     14       2.2184      2.00000
     15       5.6479      0.00000
     16       6.8928      0.00000
     17      10.6174      0.00000
     18      11.1211      0.00000

 k-point    27 :       0.4545    0.2727    0.0000
  band No.  band energies     occupation 
      1     -20.2378      2.00000
      2     -20.2275      2.00000
      3     -20.1747      2.00000
      4     -20.1101      2.00000
      5     -20.0898      2.00000
      6     -20.0769      2.00000
      7     -20.0289      2.00000
      8     -19.9953      2.00000
      9     -19.9406      2.00000
     10     -19.9304      2.00000
     11      -5.6989      2.00000
     12      -2.3680      2.00000
     13       1.2564      2.00000
     14       2.1447      2.00000
     15       5.8475      0.00000
     16       7.6207      0.00000
     17      10.3092      0.00000
     18      11.1119      0.00000

 k-point    28 :      -0.4545    0.2727    0.0000
  band No.  band energies     occupation 
      1     -20.2442      2.00000
      2     -20.2303      2.00000
      3     -20.1603      2.00000
      4     -20.0995      2.00000
      5     -20.0890      2.00000
      6     -20.0754      2.00000
      7     -20.0415      2.00000
      8     -20.0104      2.00000
      9     -19.9365      2.00000
     10     -19.9235      2.00000
     11      -5.1970      2.00000
     12      -3.0382      2.00000
     13       0.7279      2.00000
     14       2.2466      2.00000
     15       5.9272      0.00000
     16       8.9943      0.00000
     17      10.1570      0.00000
     18      10.8033      0.00000

 k-point    29 :      -0.3636    0.2727    0.0000
  band No.  band energies     occupation 
      1     -20.2455      2.00000
      2     -20.2319      2.00000
      3     -20.1542      2.00000
      4     -20.1016      2.00000
      5     -20.0939      2.00000
      6     -20.0603      2.00000
      7     -20.0497      2.00000
      8     -20.0167      2.00000
      9     -19.9346      2.00000
     10     -19.9225      2.00000
     11      -5.2561      2.00000
     12      -2.9591      2.00000
     13       0.4904      2.00000
     14       2.5124      2.00000
     15       6.1044      0.00000
     16       9.7683      0.00000
     17      10.3350      0.00000
     18      10.8936      0.00000

 k-point    30 :      -0.2727    0.2727    0.0000
  band No.  band energies     occupation 
      1     -20.2411      2.00000
      2     -20.2314      2.00000
      3     -20.1569      2.00000
      4     -20.1216      2.00000
      5     -20.0998      2.00000
      6     -20.0466      2.00000
      7     -20.0353      2.00000
      8     -20.0163      2.00000
      9     -19.9351      2.00000
     10     -19.9281      2.00000
     11      -5.7885      2.00000
     12      -2.2820      2.00000
     13       0.6580      2.00000
     14       2.9062      2.00000
     15       6.3422      0.00000
     16       9.6371      0.00000
     17       9.8991      0.00000
     18       9.9280      0.00000

 k-point    31 :       0.3636    0.3636    0.0000
  band No.  band energies     occupation 
      1     -20.2270      2.00000
      2     -20.2270      2.00000
      3     -20.1902      2.00000
      4     -20.1093      2.00000
      5     -20.1041      2.00000
      6     -20.0659      2.00000
      7     -20.0276      2.00000
      8     -19.9784      2.00000
      9     -19.9415      2.00000
     10     -19.9415      2.00000
     11      -5.8601      2.00000
     12      -2.0950      2.00000
     13       1.9393      2.00000
     14       1.9393      2.00000
     15       5.2076      0.00000
     16       6.2425      0.00000
     17      12.1427      0.00000
     18      12.1427      0.00000

 k-point    32 :       0.4545    0.3636    0.0000
  band No.  band energies     occupation 
      1     -20.2336      2.00000
      2     -20.2296      2.00000
      3     -20.1748      2.00000
      4     -20.1172      2.00000
      5     -20.0962      2.00000
      6     -20.0527      2.00000
      7     -20.0409      2.00000
      8     -19.9947      2.00000
      9     -19.9372      2.00000
     10     -19.9334      2.00000
     11      -5.3081      2.00000
     12      -2.8489      2.00000
     13       1.4700      2.00000
     14       1.8274      2.00000
     15       5.4382      0.00000
     16       6.2438      0.00000
     17      12.1116      0.00000
     18      12.5076      0.00000

 k-point    33 :      -0.4545    0.3636    0.0000
  band No.  band energies     occupation 
      1     -20.2421      2.00000
      2     -20.2315      2.00000
      3     -20.1573      2.00000
      4     -20.1158      2.00000
      5     -20.0839      2.00000
      6     -20.0546      2.00000
      7     -20.0523      2.00000
      8     -20.0127      2.00000
      9     -19.9343      2.00000
     10     -19.9247      2.00000
     11      -4.7353      2.00000
     12      -3.4964      2.00000
     13       0.8105      2.00000
     14       1.8944      2.00000
     15       5.6018      0.00000
     16       7.3400      0.00000
     17      11.7680      0.00000
     18      12.2212      0.00000

 k-point    34 :      -0.3636    0.3636    0.0000
  band No.  band energies     occupation 
      1     -20.2469      2.00000
      2     -20.2324      2.00000
      3     -20.1520      2.00000
      4     -20.0930      2.00000
      5     -20.0803      2.00000
      6     -20.0728      2.00000
      7     -20.0606      2.00000
      8     -20.0178      2.00000
      9     -19.9334      2.00000
     10     -19.9203      2.00000
     11      -4.7269      2.00000
     12      -3.4851      2.00000
     13       0.3973      2.00000
     14       2.1329      2.00000
     15       5.8060      0.00000
     16       8.9860      0.00000
     17      11.2681      0.00000
     18      11.4668      0.00000

 k-point    35 :       0.4545    0.4545    0.0000
  band No.  band energies     occupation 
      1     -20.2310      2.00000
      2     -20.2310      2.00000
      3     -20.1678      2.00000
      4     -20.1384      2.00000
      5     -20.0822      2.00000
      6     -20.0542      2.00000
      7     -20.0325      2.00000
      8     -20.0025      2.00000
      9     -19.9347      2.00000
     10     -19.9347      2.00000
[...]
     16       7.2417      0.00000
     17       9.5047      0.00000
     18      10.4715      0.00000

 k-point    42 :       0.4545    0.2727    0.0909
  band No.  band energies     occupation 
      1     -20.2344      2.00000
      2     -20.2283      2.00000
      3     -20.1758      2.00000
      4     -20.1221      2.00000
      5     -20.0935      2.00000
      6     -20.0701      2.00000
      7     -20.0183      2.00000
      8     -19.9958      2.00000
      9     -19.9409      2.00000
     10     -19.9345      2.00000
     11      -6.0782      2.00000
     12      -1.8452      2.00000
     13       1.4079      2.00000
     14       2.3641      2.00000
     15       6.5420      0.00000
     16       7.7259      0.00000
     17       9.2238      0.00000
     18      10.8938      0.00000

 k-point    43 :      -0.4545    0.2727    0.0909
  band No.  band energies     occupation 
      1     -20.2412      2.00000
      2     -20.2309      2.00000
      3     -20.1616      2.00000
      4     -20.1123      2.00000
      5     -20.0933      2.00000
      6     -20.0675      2.00000
      7     -20.0310      2.00000
      8     -20.0102      2.00000
      9     -19.9368      2.00000
     10     -19.9269      2.00000
     11      -5.5133      2.00000
     12      -2.7017      2.00000
     13       1.0008      2.00000
     14       2.2261      2.00000
     15       6.5784      0.00000
     16       8.4311      0.00000
     17       9.5317      0.00000
     18      10.8810      0.00000

 k-point    44 :      -0.3636    0.2727    0.0909
  band No.  band energies     occupation 
      1     -20.2434      2.00000
      2     -20.2323      2.00000
      3     -20.1549      2.00000
      4     -20.1092      2.00000
      5     -20.0968      2.00000
      6     -20.0591      2.00000
      7     -20.0394      2.00000
      8     -20.0168      2.00000
      9     -19.9349      2.00000
     10     -19.9247      2.00000
     11      -5.3075      2.00000
     12      -2.9776      2.00000
     13       0.7907      2.00000
     14       2.3058      2.00000
     15       6.6749      0.00000
     16       8.4145      0.00000
     17      10.3948      0.00000
     18      11.0364      0.00000

 k-point    45 :      -0.2727    0.2727    0.0909
  band No.  band energies     occupation 
      1     -20.2402      2.00000
      2     -20.2321      2.00000
      3     -20.1581      2.00000
      4     -20.1202      2.00000
      5     -20.0976      2.00000
      6     -20.0563      2.00000
      7     -20.0279      2.00000
      8     -20.0162      2.00000
      9     -19.9350      2.00000
     10     -19.9286      2.00000
     11      -5.7179      2.00000
     12      -2.4109      2.00000
     13       0.8335      2.00000
     14       2.5772      2.00000
     15       6.8547      0.00000
     16       8.3245      0.00000
     17       9.6813      0.00000
     18      10.7700      0.00000

 k-point    46 :      -0.1818    0.2727    0.0909
  band No.  band energies     occupation 
      1     -20.2325      2.00000
      2     -20.2300      2.00000
      3     -20.1707      2.00000
      4     -20.1314      2.00000
      5     -20.1060      2.00000
      6     -20.0504      2.00000
      7     -20.0120      2.00000
      8     -20.0059      2.00000
      9     -19.9384      2.00000
     10     -19.9375      2.00000
     11      -6.2960      2.00000
     12      -1.5303      2.00000
     13       1.2304      2.00000
     14       2.9617      2.00000
     15       6.9845      0.00000
     16       7.8424      0.00000
     17       9.1856      0.00000
     18      10.1545      0.00000

 k-point    47 :       0.4545    0.3636    0.0909
  band No.  band energies     occupation 
      1     -20.2313      2.00000
      2     -20.2311      2.00000
      3     -20.1787      2.00000
      4     -20.1097      2.00000
      5     -20.0968      2.00000
      6     -20.0714      2.00000
      7     -20.0284      2.00000
      8     -19.9905      2.00000
      9     -19.9373      2.00000
     10     -19.9367      2.00000
     11      -5.7707      2.00000
     12      -2.2184      2.00000
     13       1.5282      2.00000
     14       1.9079      2.00000
     15       5.9294      0.00000
     16       6.7293      0.00000
     17      10.5946      0.00000
     18      12.0829      0.00000

 k-point    48 :      -0.4545    0.3636    0.0909
  band No.  band energies     occupation 
      1     -20.2403      2.00000
      2     -20.2335      2.00000
      3     -20.1597      2.00000
      4     -20.1021      2.00000
      5     -20.0975      2.00000
      6     -20.0646      2.00000
      7     -20.0422      2.00000
      8     -20.0098      2.00000
      9     -19.9334      2.00000
     10     -19.9270      2.00000
     11      -5.1820      2.00000
     12      -2.9734      2.00000
     13       0.9672      2.00000
     14       1.7453      2.00000
     15       6.2598      0.00000
     16       7.5072      0.00000
     17      10.2468      0.00000
     18      12.2065      0.00000

 k-point    49 :      -0.3636    0.3636    0.0909
  band No.  band energies     occupation 
      1     -20.2458      2.00000
      2     -20.2347      2.00000
      3     -20.1480      2.00000
      4     -20.0938      2.00000
      5     -20.0871      2.00000
      6     -20.0719      2.00000
      7     -20.0542      2.00000
      8     -20.0209      2.00000
      9     -19.9316      2.00000
     10     -19.9213      2.00000
     11      -4.8099      2.00000
     12      -3.3903      2.00000
     13       0.5206      2.00000
     14       1.8487      2.00000
     15       6.4193      0.00000
     16       9.0278      0.00000
     17       9.9750      0.00000
     18      11.2533      0.00000

 k-point    50 :      -0.2727    0.3636    0.0909
  band No.  band energies     occupation 
      1     -20.2458      2.00000
      2     -20.2345      2.00000
      3     -20.1484      2.00000
      4     -20.1011      2.00000
      5     -20.0828      2.00000
      6     -20.0724      2.00000
      7     -20.0507      2.00000
      8     -20.0208      2.00000
      9     -19.9320      2.00000
     10     -19.9219      2.00000
     11      -5.1463      2.00000
     12      -3.0157      2.00000
     13       0.4284      2.00000
     14       2.1512      2.00000
     15       6.6737      0.00000
     16       9.4927      0.00000
     17       9.8896      0.00000
     18      10.8626      0.00000

 k-point    51 :      -0.4545    0.4545    0.0909
  band No.  band energies     occupation 
      1     -20.2352      2.00000
      2     -20.2351      2.00000
      3     -20.1577      2.00000
      4     -20.1296      2.00000
      5     -20.0828      2.00000
      6     -20.0548      2.00000
      7     -20.0400      2.00000
      8     -20.0119      2.00000
      9     -19.9312      2.00000
     10     -19.9310      2.00000
     11      -4.7249      2.00000
     12      -3.5226      2.00000
     13       1.3464      2.00000
     14       1.4701      2.00000
     15       5.9008      0.00000
     16       6.1783      0.00000
     17      12.0079      0.00000
     18      13.0117      0.00000

 k-point    52 :      -0.3636    0.4545    0.0909
  band No.  band energies     occupation 
      1     -20.2424      2.00000
      2     -20.2355      2.00000
      3     -20.1445      2.00000
      4     -20.1223      2.00000
      5     -20.0734      2.00000
      6     -20.0664      2.00000
      7     -20.0451      2.00000
      8     -20.0246      2.00000
      9     -19.9304      2.00000
     10     -19.9242      2.00000
     11      -4.3164      2.00000
     12      -3.9148      2.00000
     13       0.8103      2.00000
     14       1.5357      2.00000
     15       6.1550      0.00000
     16       7.3522      0.00000
     17      11.6418      0.00000
     18      11.6537      0.00000

 k-point    53 :      -0.4545    0.3636    0.1818
  band No.  band energies     occupation 
      1     -20.2394      2.00000
      2     -20.2354      2.00000
      3     -20.1574      2.00000
      4     -20.1109      2.00000
      5     -20.0812      2.00000
      6     -20.0806      2.00000
      7     -20.0323      2.00000
      8     -20.0136      2.00000
      9     -19.9319      2.00000
     10     -19.9287      2.00000
     11      -5.5174      2.00000
     12      -2.5576      2.00000
     13       0.8620      2.00000
     14       1.9587      2.00000
     15       7.5293      0.00000
     16       7.7294      0.00000
     17       8.8681      0.00000
     18      11.8421      0.00000

 k-point    54 :      -0.3636    0.3636    0.1818
  band No.  band energies     occupation 
      1     -20.2446      2.00000
      2     -20.2373      2.00000
      3     -20.1437      2.00000
      4     -20.1000      2.00000
      5     -20.0846      2.00000
      6     -20.0747      2.00000
      7     -20.0482      2.00000
      8     -20.0245      2.00000
      9     -19.9296      2.00000
     10     -19.9227      2.00000
     11      -4.9831      2.00000
     12      -3.1881      2.00000
     13       0.6079      2.00000
     14       1.6756      2.00000
     15       7.6594      0.00000
     16       8.2763      0.00000
     17       9.4223      0.00000
     18      11.0448      0.00000

 k-point    55 :      -0.3636    0.4545    0.1818
  band No.  band energies     occupation 
      1     -20.2421      2.00000
      2     -20.2403      2.00000
      3     -20.1374      2.00000
      4     -20.1112      2.00000
      5     -20.0854      2.00000
      6     -20.0583      2.00000
      7     -20.0537      2.00000
      8     -20.0299      2.00000
      9     -19.9264      2.00000
     10     -19.9246      2.00000
     11      -4.5922      2.00000
     12      -3.5854      2.00000
     13       0.8416      2.00000
     14       1.2089      2.00000
     15       7.4503      0.00000
     16       7.6099      0.00000
     17       9.8678      0.00000
     18      11.3229      0.00000

 k-point    56 :      -0.2727    0.4545    0.1818
  band No.  band energies     occupation 
      1     -20.2453      2.00000
      2     -20.2404      2.00000
      3     -20.1306      2.00000
      4     -20.1038      2.00000
      5     -20.0826      2.00000
      6     -20.0657      2.00000
      7     -20.0580      2.00000
      8     -20.0350      2.00000
      9     -19.9262      2.00000
     10     -19.9216      2.00000
     11      -4.4391      2.00000
     12      -3.7260      2.00000
     13       0.6178      2.00000
     14       1.2383      2.00000
     15       7.7281      0.00000
     16       9.0706      0.00000
     17       9.6168      0.00000
     18       9.6262      0.00000


--------------------------------------------------------------------------------------------------------


 soft charge-density along one line, spin component           1
         0         1         2         3         4         5         6         7         8         9
 total charge-density along one line

 pseudopotential strength for first ion, spin component:           1
-22.621   0.000  -0.000   0.000   0.000   4.541  -0.000   0.000
  0.000 -22.621   0.000   0.000  -0.000  -0.000   4.541  -0.000
 -0.000   0.000 -22.621   0.000  -0.000   0.000  -0.000   4.541
  0.000   0.000   0.000 -22.621   0.000  -0.000  -0.000  -0.000
  0.000  -0.000  -0.000   0.000 -22.621  -0.000   0.000   0.000
  4.541  -0.000   0.000  -0.000  -0.000   1.878   0.000   0.000
 -0.000   4.541  -0.000  -0.000   0.000   0.000   1.878  -0.000
  0.000  -0.000   4.541  -0.000   0.000   0.000  -0.000   1.877
 -0.000  -0.000  -0.000   4.541  -0.000   0.000   0.000  -0.000
 -0.000   0.000   0.000  -0.000   4.541  -0.000   0.000  -0.000
  0.000   0.000  -0.000   0.000   0.000  -0.000  -0.000   0.000
  0.000   0.000  -0.000   0.000   0.000  -0.000  -0.000   0.000
  0.000   0.000   0.000  -0.001   0.000  -0.000  -0.000  -0.000
 -0.001   0.000  -0.000   0.000  -0.000   0.001  -0.000   0.000
  0.000  -0.001   0.000   0.000  -0.000  -0.000   0.001  -0.000
  0.000   0.000   0.000  -0.002   0.000  -0.000  -0.000  -0.000
 -0.002   0.000  -0.000   0.000  -0.000   0.001  -0.000   0.000
  0.000  -0.002   0.000   0.000  -0.000  -0.000   0.001  -0.000
 total augmentation occupancy for first ion, spin component:           1
  2.005   0.000  -0.000  -0.000   0.000   0.016   0.000  -0.000  -0.000   0.000   0.000  -0.000   0.000   0.050   0.000   0.000
  0.000   2.005  -0.000   0.000   0.000   0.000   0.016  -0.000   0.000  -0.000   0.000  -0.000   0.000   0.000   0.050  -0.000
 -0.000  -0.000   2.003   0.000   0.000  -0.000  -0.000   0.008   0.000   0.000  -0.000   0.000   0.000  -0.000   0.000  -0.000
 -0.000   0.000   0.000   2.005  -0.000  -0.000   0.000   0.000   0.016   0.000  -0.000   0.000   0.050   0.000   0.000  -0.015
 -0.000   0.000   0.000  -0.000   2.003   0.000   0.000   0.000  -0.000   0.008  -0.000   0.000   0.000  -0.000   0.000  -0.000
  0.016   0.000  -0.000  -0.000  -0.000   0.038   0.000   0.000   0.000   0.000   0.000  -0.000  -0.000   0.204  -0.000   0.000
  0.000   0.016   0.000   0.000  -0.000   0.000   0.038  -0.000   0.000   0.000   0.000  -0.000   0.000   0.000   0.204  -0.000
 -0.000  -0.000   0.008   0.000   0.000  -0.000  -0.000   0.011  -0.000   0.000  -0.000  -0.000   0.000  -0.000  -0.000  -0.000
 -0.000   0.000  -0.000   0.016   0.000  -0.000   0.000  -0.000   0.038  -0.000   0.000   0.000   0.204   0.000   0.000  -0.034
 -0.000   0.000   0.000  -0.000   0.008  -0.000   0.000   0.000  -0.000   0.011  -0.000   0.000   0.000   0.000  -0.000  -0.000
  0.000   0.000  -0.000  -0.000   0.000   0.000  -0.000  -0.000   0.000  -0.000   3.377  -0.959   0.000   0.000   0.000   0.000
 -0.000   0.000   0.000  -0.000   0.000   0.000   0.000   0.000  -0.000   0.000  -0.959   0.443  -0.000  -0.000   0.000   0.000
  0.000   0.000   0.000   0.050   0.000   0.000   0.000   0.000   0.204   0.000   0.000  -0.000   1.921  -0.000   0.000  -0.312
  0.050   0.000  -0.000   0.000   0.000   0.204   0.000  -0.000   0.000  -0.000   0.000  -0.000  -0.000   1.921  -0.000   0.000
  0.000   0.050  -0.000   0.000   0.000  -0.000   0.204  -0.000   0.000  -0.000   0.000  -0.000   0.000   0.000   1.921  -0.000
  0.000  -0.000  -0.000  -0.015   0.000   0.000  -0.000  -0.000  -0.034  -0.000   0.000  -0.000  -0.312   0.000  -0.000   0.058
 -0.015  -0.000   0.000   0.000   0.000  -0.034  -0.000   0.000   0.000  -0.000   0.000  -0.000   0.000  -0.312  -0.000   0.000
  0.000  -0.015  -0.000  -0.000   0.000   0.000  -0.034  -0.000  -0.000   0.000   0.000  -0.000  -0.000   0.000  -0.312  -0.000


------------------------ aborting loop because EDIFF is reached ----------------------------------------


    CHARGE:  cpu time      0.1542: real time      0.1542
    FORLOC:  cpu time      0.0011: real time      0.0011
    FORNL :  cpu time      0.4479: real time      0.4479
    STRESS:  cpu time      1.4858: real time      1.4859
    FORCOR:  cpu time      0.0388: real time      0.0388
    FORHAR:  cpu time      0.0113: real time      0.0113
    MIXING:  cpu time      0.0009: real time      0.0009
    OFIELD:  cpu time      0.0000: real time      0.0000

  FORCE on cell =-STRESS in cart. coord.  units (eV):
  Direction    XX          YY          ZZ          XY          YZ          ZX
  --------------------------------------------------------------------------------------
  Alpha Z   123.61057   123.61057   123.61057
  Ewald    -882.12611  -882.12611  -882.12611    -0.00000    -0.00000     0.00000
  Hartree   513.44313   513.44313   513.44313     0.00000     0.00000     0.00000
  E(xc)    -164.60540  -164.60540  -164.60540     0.00001     0.00001     0.00001
  Local     -43.37455   -43.37455   -43.37455     0.00033     0.00033     0.00033
  n-local    58.04546    59.53422    53.11161     2.31879    -1.08925     0.26805
  augment   252.01330   252.01330   252.01329    -0.00027    -0.00027    -0.00027
  Kinetic   146.71520   145.65874   140.22144     4.30823    -1.13130     1.15026
  Fock        0.00000     0.00000     0.00000     0.00000     0.00000     0.00000
  -------------------------------------------------------------------------------------
  Total       0.05649     0.05649     0.05649    -0.00000     0.00000    -0.00000
  in kB       1.90943     1.90943     1.90943    -0.00000     0.00000    -0.00000
  external pressure =        1.91 kB  Pullay stress =        0.00 kB


 VOLUME and BASIS-vectors are now :
 -----------------------------------------------------------------------------
  energy-cutoff  :      450.00
  volume of cell :       47.40
      direct lattice vectors                 reciprocal lattice vectors
    -0.000000000  2.872507096  2.872507096    -0.174063974  0.174063974  0.174063974
     2.872507096 -0.000000000  2.872507096     0.174063974 -0.174063974  0.174063974
     2.872507096  2.872507096  0.000000000     0.174063974  0.174063974 -0.174063974

  length of vectors
     4.062338493  4.062338493  4.062338493     0.301487646  0.301487646  0.301487646


 FORCES acting on ions
    electron-ion (+dipol)            ewald-force                    non-local-force                 convergence-correction
 -----------------------------------------------------------------------------------------------
   -.519E-07 -.519E-07 0.431E-07   0.105E-12 -.120E-12 0.815E-13   -.352E-16 -.115E-15 -.106E-15   -.465E-07 -.465E-07 -.465E-07
   0.519E-07 0.519E-07 -.431E-07   -.106E-12 0.118E-12 -.830E-13   -.123E-15 -.532E-17 0.881E-16   0.465E-07 0.465E-07 0.465E-07
 -----------------------------------------------------------------------------------------------
   0.761E-11 0.152E-11 -.323E-12   -.615E-15 -.221E-14 -.150E-14   -.158E-15 -.120E-15 -.180E-16   0.105E-12 0.147E-13 -.487E-13


 POSITION                                       TOTAL-FORCE (eV/Angst)
 -----------------------------------------------------------------------------------
      5.02689      5.02689      5.02689        -0.000000     -0.000000     -0.000000
      0.71813      0.71813      0.71813         0.000000      0.000000      0.000000
 -----------------------------------------------------------------------------------
    total drift:                                0.000000      0.000000     -0.000000


--------------------------------------------------------------------------------------------------------



  FREE ENERGIE OF THE ION-ELECTRON SYSTEM (eV)
  ---------------------------------------------------
  free  energy   TOTEN  =        -9.03347559 eV

  energy  without entropy=       -9.03337410  energy(sigma->0) =       -9.03342484



--------------------------------------------------------------------------------------------------------


    POTLOK:  cpu time      0.1117: real time      0.1117


--------------------------------------------------------------------------------------------------------


 writing wavefunctions
     LOOP+:  cpu time     22.0909: real time     22.1005
    4ORBIT:  cpu time      0.0000: real time      0.0000

 total amount of memory used by VASP MPI-rank0    65458. kBytes
=======================================================================

   base      :      30000. kBytes
   nonl-proj :       8419. kBytes
   fftplans  :      13127. kBytes
   grid      :       5205. kBytes
   one-center:         31. kBytes
   wavefun   :       8676. kBytes

  
  
 General timing and accounting informations for this job:
 ========================================================
  
                  Total CPU time used (sec):       23.210
                            User time (sec):       21.438
                          System time (sec):        1.772
                         Elapsed time (sec):       23.481
  
                   Maximum memory used (kb):      127260.
                   Average memory used (kb):          N/A
  
                          Minor page faults:       259822
                          Major page faults:            5
                 Voluntary context switches:         1274
