 vasp.6.3.2 27Jun22 (build Nov 28 2025 11:56:12) complex                         
 executed on             LinuxGNU date 2026.01.18  21:17:35
 running    2 mpi-ranks, with    1 threads/rank
 distrk:  each k-point on    2 cores,    1 groups
 distr:  one band on NCORE=   1 cores,    2 groups


--------------------------------------------------------------------------------------------------------


 INCAR:
   ISTART = 1            (Read existing wavefunction, if there)
   ISPIN = 1            (Non-Spin polarised DFT)
   LREAL = .FALSE.       (Projection operators: automatic)
   ENCUT = 450          (Cut-off energy for plane wave basis set, in eV)
   PREC = Accurate   (Precision level: Normal or Accurate, set Accurate when perform structure lattice relaxation calculation)
   LWAVE = .TRUE.        (Write WAVECAR or not)
   LCHARG = .TRUE.        (Write CHGCAR or not)
   ADDGRID = .TRUE.        (Increase grid, helps GGA convergence)
   ISMEAR = 0            (gaussian smearing method)
   SIGMA = 0.05         (please check the width of the smearing)
   NELM = 60           (Max electronic SCF steps)
   EDIFF = 1E-06        (SCF energy convergence, in eV)

 POTCAR:    PAW_PBE Ge_d 03Jul2007                
 POTCAR:    PAW_PBE Ge_d 03Jul2007                
   VRHFIN =Ge: 3d4s4p                                                                               
   LEXCH  = PE                                                                                      
   EATOM  =  2596.2402 eV,  190.8183 Ry                                                             
                                                                                                    
   TITEL  = PAW_PBE Ge_d 03Jul2007                                                                  
   LULTRA =        F    use ultrasoft PP ?                                                          
   IUNSCR =        1    unscreen: 0-lin 1-nonlin 2-no                                               
   RPACOR =    2.000    partial core radius                                                         
   POMASS =   72.610; ZVAL   =   14.000    mass and valenz                                          
   RCORE  =    2.300    outmost cutoff radius                                                       
   RWIGS  =    2.300; RWIGS  =    1.217    wigner-seitz radius (au A)                               
   ENMAX  =  310.294; ENMIN  =  232.720 eV                                                          
   ICORE  =        3    local potential                                                             
   LCOR   =        T    correct aug charges                                                         
   LPAW   =        T    paw PP                                                                      
   EAUG   =  531.356                                                                                
   DEXC   =    0.000                                                                                
   RMAX   =    2.342    core radius for proj-oper                                                   
   RAUG   =    1.300    factor for augmentation sphere                                              
   RDEP   =    2.318    radius for radial grids                                                     
   RDEPT  =    1.783    core radius for aug-charge                                                  
                                                                                                    
   Atomic configuration                                                                             
    9 entries                                                                                       
     n  l   j            E        occ.                                                              
     1  0  0.50    -10959.8463   2.0000                                                             
     2  0  0.50     -1371.6056   2.0000                                                             
     2  1  1.50     -1198.4791   6.0000                                                             
     3  0  0.50      -168.4733   2.0000                                                             
     3  1  1.50      -115.6019   6.0000                                                             
     3  2  2.50       -29.3106  10.0000                                                             
     4  0  0.50       -11.7309   2.0000                                                             
     4  1  0.50        -3.8952   2.0000                                                             
     4  3  2.50        -4.0817   0.0000                                                             
   Description                                                                                      
     l       E           TYP  RCUT    TYP  RCUT                                                     
     2    -29.3105938     23  2.200                                                                 
     2    -13.6058260     23  2.200                                                                 
     0    -11.7309493     23  2.300                                                                 
     0     -7.4578696     23  2.300                                                                 
     1     -3.8952261     23  2.300                                                                 
     1      6.1178114     23  2.300                                                                 
     3     -1.3605826     23  2.300                                                                 
  local pseudopotential read in
  partial core-charges read in
  partial kinetic energy density read in
  atomic valenz-charges read in
  non local Contribution for L=           2  read in
    real space projection operators read in
  non local Contribution for L=           2  read in
    real space projection operators read in
  non local Contribution for L=           0  read in
    real space projection operators read in
  non local Contribution for L=           0  read in
    real space projection operators read in
  non local Contribution for L=           1  read in
    real space projection operators read in
  non local Contribution for L=           1  read in
    real space projection operators read in
    PAW grid and wavefunctions read in

   number of l-projection  operators is LMAX  =           6
   number of lm-projection operators is LMMAX =          18

  PAW_PBE Ge_d 03Jul2007                :
 energy of atom  1       EATOM=-2596.2402
 kinetic energy error for atom=    0.0077 (will be added to EATOM!!)


 POSCAR: cubic diamond Ge
  positions in direct lattice
  velocities in cartesian coordinates
 exchange correlation table for  LEXCH =        8
   RHO(1)=    0.500       N(1)  =     2000
   RHO(2)=  100.500       N(2)  =     4000



--------------------------------------------------------------------------------------------------------


 ion  position               nearest neighbor table
   1  0.875  0.875  0.875-   2 2.37   2 2.37   2 2.37   2 2.37
   2  0.125  0.125  0.125-   1 2.37   1 2.37   1 2.37   1 2.37

  LATTYP: Found a face centered cubic cell.
 ALAT       =     5.4686207326
  
  Lattice vectors:
  
 A1 = (   0.0000000000,   2.7343103663,   2.7343103663)
 A2 = (   2.7343103663,   0.0000000000,   2.7343103663)
 A3 = (   2.7343103663,   2.7343103663,   0.0000000000)


Analysis of symmetry for initial positions (statically):
=====================================================================
 Subroutine PRICEL returns:
 Original cell was already a primitive cell.
 

 Routine SETGRP: Setting up the symmetry group for a 
 face centered cubic supercell.


 Subroutine GETGRP returns: Found 48 space group operations
 (whereof 12 operations were pure point group operations)
 out of a pool of 48 trial point group operations.


The static configuration has the point symmetry D_3d.
 The point group associated with its full space group is O_h .


Analysis of symmetry for dynamics (positions and initial velocities):
=====================================================================
 Subroutine PRICEL returns:
 Original cell was already a primitive cell.
 

 Routine SETGRP: Setting up the symmetry group for a 
 face centered cubic supercell.


 Subroutine GETGRP returns: Found 48 space group operations
 (whereof 12 operations were pure point group operations)
 out of a pool of 48 trial point group operations.


The dynamic configuration has the point symmetry D_3d.
 The point group associated with its full space group is O_h .


 Subroutine INISYM returns: Found 48 space group operations
 (whereof 12 operations are pure point group operations),
 and found     1 'primitive' translations


----------------------------------------------------------------------------------------

                                     Primitive cell                                     

  volume of cell :      40.8859

  direct lattice vectors                    reciprocal lattice vectors
     0.000000000  2.734310366  2.734310366    -0.182861465  0.182861465  0.182861465
     2.734310366  0.000000000  2.734310366     0.182861465 -0.182861465  0.182861465
     2.734310366  2.734310366  0.000000000     0.182861465  0.182861465 -0.182861465

  length of vectors
     3.866898804  3.866898804  3.866898804     0.316725349  0.316725349  0.316725349

  position of ions in fractional coordinates (direct lattice)
     0.875000000  0.875000000  0.875000000
     0.125000000  0.125000000  0.125000000

  ion indices of the primitive-cell ions
   primitive index   ion index
                 1           1
                 2           2

----------------------------------------------------------------------------------------



 KPOINTS: K-Spacing Value to Generate K-Mesh: 0.03

Automatic generation of k-mesh.
 Grid dimensions read from file:
 generate k-points for:   11   11   11

 Generating k-lattice:

  Cartesian coordinates                     Fractional coordinates (reciprocal lattice)
    -0.016623770  0.016623770  0.016623770     0.090909091  0.000000000 -0.000000000
     0.016623770 -0.016623770  0.016623770     0.000000000  0.090909091  0.000000000
     0.016623770  0.016623770 -0.016623770    -0.000000000 -0.000000000  0.090909091

  Length of vectors
     0.028793214  0.028793214  0.028793214

  Shift w.r.t. Gamma in fractional coordinates (k-lattice)
     0.000000000  0.000000000  0.000000000

 
 Subroutine IBZKPT returns following result:
 ===========================================
 
 Found     56 irreducible k-points:
 
 Following reciprocal coordinates:
            Coordinates               Weight
  0.000000  0.000000  0.000000      1.000000
  0.090909  0.000000  0.000000      8.000000
  0.181818  0.000000  0.000000      8.000000
  0.272727  0.000000  0.000000      8.000000
  0.363636  0.000000  0.000000      8.000000
  0.454545  0.000000  0.000000      8.000000
  0.090909  0.090909  0.000000      6.000000
  0.181818  0.090909  0.000000     24.000000
  0.272727  0.090909  0.000000     24.000000
  0.363636  0.090909  0.000000     24.000000
  0.454545  0.090909  0.000000     24.000000
 -0.454545  0.090909  0.000000     24.000000
 -0.363636  0.090909  0.000000     24.000000
 -0.272727  0.090909  0.000000     24.000000
 -0.181818  0.090909  0.000000     24.000000
 -0.090909  0.090909  0.000000     12.000000
  0.181818  0.181818  0.000000      6.000000
  0.272727  0.181818  0.000000     24.000000
  0.363636  0.181818  0.000000     24.000000
  0.454545  0.181818  0.000000     24.000000
 -0.454545  0.181818  0.000000     24.000000
 -0.363636  0.181818  0.000000     24.000000
 -0.272727  0.181818  0.000000     24.000000
 -0.181818  0.181818  0.000000     12.000000
  0.272727  0.272727  0.000000      6.000000
  0.363636  0.272727  0.000000     24.000000
  0.454545  0.272727  0.000000     24.000000
 -0.454545  0.272727  0.000000     24.000000
 -0.363636  0.272727  0.000000     24.000000
 -0.272727  0.272727  0.000000     12.000000
  0.363636  0.363636  0.000000      6.000000
  0.454545  0.363636  0.000000     24.000000
 -0.454545  0.363636  0.000000     24.000000
 -0.363636  0.363636  0.000000     12.000000
  0.454545  0.454545  0.000000      6.000000
 -0.454545  0.454545  0.000000     12.000000
  0.272727  0.181818  0.090909     24.000000
  0.363636  0.181818  0.090909     48.000000
  0.454545  0.181818  0.090909     48.000000
 -0.454545  0.181818  0.090909     48.000000
  0.363636  0.272727  0.090909     24.000000
  0.454545  0.272727  0.090909     48.000000
 -0.454545  0.272727  0.090909     48.000000
 -0.363636  0.272727  0.090909     48.000000
 -0.272727  0.272727  0.090909     48.000000
 -0.181818  0.272727  0.090909     24.000000
  0.454545  0.363636  0.090909     24.000000
 -0.454545  0.363636  0.090909     48.000000
 -0.363636  0.363636  0.090909     48.000000
 -0.272727  0.363636  0.090909     24.000000
 -0.454545  0.454545  0.090909     24.000000
 -0.363636  0.454545  0.090909     24.000000
 -0.454545  0.363636  0.181818     24.000000
 -0.363636  0.363636  0.181818     48.000000
 -0.363636  0.454545  0.181818     24.000000
 -0.272727  0.454545  0.181818     24.000000
 
 Following cartesian coordinates:
            Coordinates               Weight
  0.000000  0.000000  0.000000      1.000000
 -0.094050  0.094050  0.094050      8.000000
 -0.188099  0.188099  0.188099      8.000000
 -0.282149  0.282149  0.282149      8.000000
 -0.376199  0.376199  0.376199      8.000000
 -0.470248  0.470248  0.470248      8.000000
  0.000000  0.000000  0.188099      6.000000
 -0.094050  0.094050  0.282149     24.000000
 -0.188099  0.188099  0.376199     24.000000
 -0.282149  0.282149  0.470248     24.000000
 -0.376199  0.376199  0.564298     24.000000
  0.564298 -0.564298 -0.376199     24.000000
  0.470248 -0.470248 -0.282149     24.000000
  0.376199 -0.376199 -0.188099     24.000000
  0.282149 -0.282149 -0.094050     24.000000
  0.188099 -0.188099  0.000000     12.000000
  0.000000  0.000000  0.376199      6.000000
 -0.094050  0.094050  0.470248     24.000000
 -0.188099  0.188099  0.564298     24.000000
 -0.282149  0.282149  0.658347     24.000000
  0.658347 -0.658347 -0.282149     24.000000
  0.564298 -0.564298 -0.188099     24.000000
  0.470248 -0.470248 -0.094050     24.000000
  0.376199 -0.376199  0.000000     12.000000
  0.000000  0.000000  0.564298      6.000000
 -0.094050  0.094050  0.658347     24.000000
 -0.188099  0.188099  0.752397     24.000000
  0.752397 -0.752397 -0.188099     24.000000
  0.658347 -0.658347 -0.094050     24.000000
  0.564298 -0.564298  0.000000     12.000000
  0.000000  0.000000  0.752397      6.000000
 -0.094050  0.094050  0.846447     24.000000
  0.846447 -0.846447 -0.094050     24.000000
  0.752397 -0.752397  0.000000     12.000000
  0.000000  0.000000  0.940496      6.000000
  0.940496 -0.940496  0.000000     12.000000
  0.000000  0.188099  0.376199     24.000000
 -0.094050  0.282149  0.470248     48.000000
 -0.188099  0.376199  0.564298     48.000000
  0.752397 -0.564298 -0.376199     48.000000
  0.000000  0.188099  0.564298     24.000000
 -0.094050  0.282149  0.658347     48.000000
  0.846447 -0.658347 -0.282149     48.000000
  0.752397 -0.564298 -0.188099     48.000000
  0.658347 -0.470248 -0.094050     48.000000
  0.564298 -0.376199  0.000000     24.000000
  0.000000  0.188099  0.752397     24.000000
  0.940496 -0.752397 -0.188099     48.000000
  0.846447 -0.658347 -0.094050     48.000000
  0.752397 -0.564298  0.000000     24.000000
  1.034546 -0.846447 -0.094050     24.000000
  0.940496 -0.752397 -0.000000     24.000000
  1.034546 -0.658347 -0.282149     24.000000
  0.940496 -0.564298 -0.188099     48.000000
  1.034546 -0.658347 -0.094050     24.000000
  0.940496 -0.564298  0.000000     24.000000
 


--------------------------------------------------------------------------------------------------------




 Dimension of arrays:
   k-points           NKPTS =     56   k-points in BZ     NKDIM =     56   number of bands    NBANDS=     18
   number of dos      NEDOS =    301   number of ions     NIONS =      2
   non local maximal  LDIM  =      6   non local SUM 2l+1 LMDIM =     18
   total plane-waves  NPLWV =  21952
   max r-space proj   IRMAX =      1   max aug-charges    IRDMAX= 144637
   dimension x,y,z NGX =    28 NGY =   28 NGZ =   28
   dimension x,y,z NGXF=    56 NGYF=   56 NGZF=   56
   support grid    NGXF=   112 NGYF=  112 NGZF=  112
   ions per type =               2
   NGX,Y,Z   is equivalent  to a cutoff of  12.04, 12.04, 12.04 a.u.
   NGXF,Y,Z  is equivalent  to a cutoff of  24.08, 24.08, 24.08 a.u.

 SYSTEM =  unknown system                          
 POSCAR =  cubic diamond Ge                        

 Startparameter for this run:
   NWRITE =      2    write-flag & timer
   PREC   = accura    normal or accurate (medium, high low for compatibility)
   ISTART =      0    job   : 0-new  1-cont  2-samecut
   ICHARG =      2    charge: 1-file 2-atom 10-const
   ISPIN  =      1    spin polarized calculation?
   LNONCOLLINEAR =      F non collinear calculations
   LSORBIT =      F    spin-orbit coupling
   INIWAV =      1    electr: 0-lowe 1-rand  2-diag
   LASPH  =      F    aspherical Exc in radial PAW
 Electronic Relaxation 1
   ENCUT  =  450.0 eV  33.07 Ry    5.75 a.u.   6.69  6.69  6.69*2*pi/ulx,y,z
   ENINI  =  450.0     initial cutoff
   ENAUG  =  531.4 eV  augmentation charge cutoff
   NELM   =     60;   NELMIN=  2; NELMDL=  0     # of ELM steps 
   EDIFF  = 0.1E-05   stopping-criterion for ELM
   LREAL  =      F    real-space projection
   NLSPLINE    = F    spline interpolate recip. space projectors
   LCOMPAT=      F    compatible to vasp.4.4
   GGA_COMPAT  = T    GGA compatible to vasp.4.4-vasp.4.6
   LMAXPAW     = -100 max onsite density
   LMAXMIX     =    2 max onsite mixed and CHGCAR
   VOSKOWN=      0    Vosko Wilk Nusair interpolation
   ROPT   =    0.00000
 Ionic relaxation
   EDIFFG = 0.1E-04   stopping-criterion for IOM
   NSW    =      0    number of steps for IOM
   NBLOCK =      1;   KBLOCK =      1    inner block; outer block 
   IBRION =     -1    ionic relax: 0-MD 1-quasi-New 2-CG
   NFREE  =      0    steps in history (QN), initial steepest desc. (CG)
   ISIF   =      2    stress and relaxation
   IWAVPR =     10    prediction:  0-non 1-charg 2-wave 3-comb
   ISYM   =      2    0-nonsym 1-usesym 2-fastsym
   LCORR  =      T    Harris-Foulkes like correction to forces

   POTIM  = 0.5000    time-step for ionic-motion
   TEIN   =    0.0    initial temperature
   TEBEG  =    0.0;   TEEND  =   0.0 temperature during run
   SMASS  =  -3.00    Nose mass-parameter (am)
   estimated Nose-frequenzy (Omega)   =  0.10E-29 period in steps = 0.13E+47 mass=  -0.342E-27a.u.
   SCALEE = 1.0000    scale energy and forces
   NPACO  =    256;   APACO  = 10.0  distance and # of slots for P.C.
   PSTRESS=    0.0 pullay stress

  Mass of Ions in am
   POMASS =  72.61
  Ionic Valenz
   ZVAL   =  14.00
  Atomic Wigner-Seitz radii
   RWIGS  =  -1.00
  virtual crystal weights 
   VCA    =   1.00
   NELECT =      28.0000    total number of electrons
   NUPDOWN=      -1.0000    fix difference up-down

 DOS related values:
   EMIN   =  10.00;   EMAX   =-10.00  energy-range for DOS
   EFERMI =   0.00
   ISMEAR =     0;   SIGMA  =   0.05  broadening in eV -4-tet -1-fermi 0-gaus

 Electronic relaxation 2 (details)
   IALGO  =     38    algorithm
   LDIAG  =      T    sub-space diagonalisation (order eigenvalues)
   LSUBROT=      F    optimize rotation matrix (better conditioning)
   TURBO    =      0    0=normal 1=particle mesh
   IRESTART =      0    0=no restart 2=restart with 2 vectors
   NREBOOT  =      0    no. of reboots
   NMIN     =      0    reboot dimension
   EREF     =   0.00    reference energy to select bands
   IMIX   =      4    mixing-type and parameters
     AMIX     =   0.40;   BMIX     =  1.00
     AMIX_MAG =   1.60;   BMIX_MAG =  1.00
     AMIN     =   0.10
     WC   =   100.;   INIMIX=   1;  MIXPRE=   1;  MAXMIX= -45

 Intra band minimization:
   WEIMIN = 0.0000     energy-eigenvalue tresh-hold
   EBREAK =  0.14E-07  absolut break condition
   DEPER  =   0.30     relativ break condition  

   TIME   =   0.40     timestep for ELM

  volume/ion in A,a.u.               =      20.44       137.96
  Fermi-wavevector in a.u.,A,eV,Ry     =   1.443011  2.726896 28.331157  2.082281
  Thomas-Fermi vector in A             =   2.561467

 Write flags
   LWAVE        =      T    write WAVECAR
   LDOWNSAMPLE  =      F    k-point downsampling of WAVECAR
   LCHARG       =      T    write CHGCAR
   LVTOT        =      F    write LOCPOT, total local potential
   LVHAR        =      F    write LOCPOT, Hartree potential only
   LELF         =      F    write electronic localiz. function (ELF)
   LORBIT       =      0    0 simple, 1 ext, 2 COOP (PROOUT), +10 PAW based schemes


 Dipole corrections
   LMONO  =      F    monopole corrections only (constant potential shift)
   LDIPOL =      F    correct potential (dipole corrections)
   IDIPOL =      0    1-x, 2-y, 3-z, 4-all directions 
   EPSILON=  1.0000000 bulk dielectric constant

 Exchange correlation treatment:
   GGA     =    --    GGA type
   LEXCH   =     8    internal setting for exchange type
   LIBXC   =     F    Libxc                    
   VOSKOWN =     0    Vosko Wilk Nusair interpolation
   LHFCALC =     F    Hartree Fock is set to
   LHFONE  =     F    Hartree Fock one center treatment
   AEXX    =    0.0000 exact exchange contribution

 Linear response parameters
   LEPSILON=     F    determine dielectric tensor
   LRPA    =     F    only Hartree local field effects (RPA)
   LNABLA  =     F    use nabla operator in PAW spheres
   LVEL    =     F    velocity operator in full k-point grid
   CSHIFT  =0.1000    complex shift for real part using Kramers Kronig
   OMEGAMAX=  -1.0    maximum frequency
   DEG_THRESHOLD= 0.2000000E-02 threshold for treating states as degnerate
   RTIME   =   -0.100 relaxation time in fs
  (WPLASMAI=    0.000 imaginary part of plasma frequency in eV, 0.658/RTIME)
   DFIELD  = 0.0000000 0.0000000 0.0000000 field for delta impulse in time

  Optional k-point grid parameters
   LKPOINTS_OPT  =     F    use optional k-point grid
   KPOINTS_OPT_MODE=     1    mode for optional k-point grid

 Orbital magnetization related:
   ORBITALMAG=     F  switch on orbital magnetization
   LCHIMAG   =     F  perturbation theory with respect to B field
   DQ        =  0.001000  dq finite difference perturbation B field
   LLRAUG    =     F  two centre corrections for induced B field



--------------------------------------------------------------------------------------------------------


 Static calculation
 charge density and potential will be updated during run
 non-spin polarized calculation
 Variant of blocked Davidson
 Davidson routine will perform the subspace rotation
 perform sub-space diagonalisation
    after iterative eigenvector-optimisation
 modified Broyden-mixing scheme, WC =      100.0
 initial mixing is a Kerker type mixing with AMIX =  0.4000 and BMIX =      1.0000
 Hartree-type preconditioning will be used
 using additional bands            4
 reciprocal scheme for non local part
 use partial core corrections
 calculate Harris-corrections to forces   (improved forces if not selfconsistent)
 use gradient corrections 
 use of overlap-Matrix (Vanderbilt PP)
 Gauss-broadening in eV      SIGMA  =   0.05


--------------------------------------------------------------------------------------------------------


  energy-cutoff  :      450.00
  volume of cell :       40.89
      direct lattice vectors                 reciprocal lattice vectors
     0.000000000  2.734310366  2.734310366    -0.182861465  0.182861465  0.182861465
     2.734310366  0.000000000  2.734310366     0.182861465 -0.182861465  0.182861465
     2.734310366  2.734310366  0.000000000     0.182861465  0.182861465 -0.182861465

  length of vectors
     3.866898804  3.866898804  3.866898804     0.316725349  0.316725349  0.316725349



 k-points in units of 2pi/SCALE and weight: K-Spacing Value to Generate K-Mesh: 0.03
   0.00000000  0.00000000  0.00000000       0.001
  -0.09404964  0.09404964  0.09404964       0.006
  -0.18809928  0.18809928  0.18809928       0.006
  -0.28214892  0.28214892  0.28214892       0.006
  -0.37619857  0.37619857  0.37619857       0.006
  -0.47024821  0.47024821  0.47024821       0.006
   0.00000000  0.00000000  0.18809928       0.005
  -0.09404964  0.09404964  0.28214892       0.018
  -0.18809928  0.18809928  0.37619857       0.018
  -0.28214892  0.28214892  0.47024821       0.018
  -0.37619857  0.37619857  0.56429785       0.018
   0.56429785 -0.56429785 -0.37619857       0.018
   0.47024821 -0.47024821 -0.28214892       0.018
   0.37619857 -0.37619857 -0.18809928       0.018
   0.28214892 -0.28214892 -0.09404964       0.018
   0.18809928 -0.18809928  0.00000000       0.009
   0.00000000  0.00000000  0.37619857       0.005
  -0.09404964  0.09404964  0.47024821       0.018
  -0.18809928  0.18809928  0.56429785       0.018
  -0.28214892  0.28214892  0.65834749       0.018
   0.65834749 -0.65834749 -0.28214892       0.018
   0.56429785 -0.56429785 -0.18809928       0.018
   0.47024821 -0.47024821 -0.09404964       0.018
   0.37619857 -0.37619857  0.00000000       0.009
   0.00000000  0.00000000  0.56429785       0.005
  -0.09404964  0.09404964  0.65834749       0.018
  -0.18809928  0.18809928  0.75239713       0.018
   0.75239713 -0.75239713 -0.18809928       0.018
   0.65834749 -0.65834749 -0.09404964       0.018
   0.56429785 -0.56429785  0.00000000       0.009
   0.00000000  0.00000000  0.75239713       0.005
  -0.09404964  0.09404964  0.84644677       0.018
   0.84644677 -0.84644677 -0.09404964       0.018
   0.75239713 -0.75239713  0.00000000       0.009
   0.00000000  0.00000000  0.94049641       0.005
   0.94049641 -0.94049641  0.00000000       0.009
   0.00000000  0.18809928  0.37619857       0.018
  -0.09404964  0.28214892  0.47024821       0.036
  -0.18809928  0.37619857  0.56429785       0.036
   0.75239713 -0.56429785 -0.37619857       0.036
   0.00000000  0.18809928  0.56429785       0.018
  -0.09404964  0.28214892  0.65834749       0.036
   0.84644677 -0.65834749 -0.28214892       0.036
   0.75239713 -0.56429785 -0.18809928       0.036
   0.65834749 -0.47024821 -0.09404964       0.036
   0.56429785 -0.37619857  0.00000000       0.018
   0.00000000  0.18809928  0.75239713       0.018
   0.94049641 -0.75239713 -0.18809928       0.036
   0.84644677 -0.65834749 -0.09404964       0.036
   0.75239713 -0.56429785  0.00000000       0.018
   1.03454605 -0.84644677 -0.09404964       0.018
   0.94049641 -0.75239713 -0.00000000       0.018
   1.03454605 -0.65834749 -0.28214892       0.018
   0.94049641 -0.56429785 -0.18809928       0.036
   1.03454605 -0.65834749 -0.09404964       0.018
   0.94049641 -0.56429785  0.00000000       0.018

 k-points in reciprocal lattice and weights: K-Spacing Value to Generate K-Mesh: 0.03
   0.00000000  0.00000000  0.00000000       0.001
   0.09090909  0.00000000  0.00000000       0.006
   0.18181818  0.00000000  0.00000000       0.006
   0.27272727  0.00000000  0.00000000       0.006
   0.36363636  0.00000000  0.00000000       0.006
   0.45454545  0.00000000  0.00000000       0.006
   0.09090909  0.09090909  0.00000000       0.005
   0.18181818  0.09090909  0.00000000       0.018
   0.27272727  0.09090909  0.00000000       0.018
   0.36363636  0.09090909  0.00000000       0.018
   0.45454545  0.09090909  0.00000000       0.018
  -0.45454545  0.09090909  0.00000000       0.018
  -0.36363636  0.09090909  0.00000000       0.018
  -0.27272727  0.09090909  0.00000000       0.018
  -0.18181818  0.09090909  0.00000000       0.018
  -0.09090909  0.09090909  0.00000000       0.009
   0.18181818  0.18181818  0.00000000       0.005
   0.27272727  0.18181818  0.00000000       0.018
   0.36363636  0.18181818  0.00000000       0.018
   0.45454545  0.18181818  0.00000000       0.018
  -0.45454545  0.18181818  0.00000000       0.018
  -0.36363636  0.18181818  0.00000000       0.018
  -0.27272727  0.18181818  0.00000000       0.018
  -0.18181818  0.18181818  0.00000000       0.009
   0.27272727  0.27272727  0.00000000       0.005
   0.36363636  0.27272727  0.00000000       0.018
   0.45454545  0.27272727  0.00000000       0.018
  -0.45454545  0.27272727  0.00000000       0.018
  -0.36363636  0.27272727  0.00000000       0.018
  -0.27272727  0.27272727  0.00000000       0.009
   0.36363636  0.36363636  0.00000000       0.005
   0.45454545  0.36363636  0.00000000       0.018
  -0.45454545  0.36363636  0.00000000       0.018
  -0.36363636  0.36363636  0.00000000       0.009
   0.45454545  0.45454545  0.00000000       0.005
  -0.45454545  0.45454545  0.00000000       0.009
   0.27272727  0.18181818  0.09090909       0.018
   0.36363636  0.18181818  0.09090909       0.036
   0.45454545  0.18181818  0.09090909       0.036
  -0.45454545  0.18181818  0.09090909       0.036
   0.36363636  0.27272727  0.09090909       0.018
   0.45454545  0.27272727  0.09090909       0.036
  -0.45454545  0.27272727  0.09090909       0.036
  -0.36363636  0.27272727  0.09090909       0.036
  -0.27272727  0.27272727  0.09090909       0.036
  -0.18181818  0.27272727  0.09090909       0.018
   0.45454545  0.36363636  0.09090909       0.018
  -0.45454545  0.36363636  0.09090909       0.036
  -0.36363636  0.36363636  0.09090909       0.036
  -0.27272727  0.36363636  0.09090909       0.018
  -0.45454545  0.45454545  0.09090909       0.018
  -0.36363636  0.45454545  0.09090909       0.018
  -0.45454545  0.36363636  0.18181818       0.018
  -0.36363636  0.36363636  0.18181818       0.036
  -0.36363636  0.45454545  0.18181818       0.018
  -0.27272727  0.45454545  0.18181818       0.018

 position of ions in fractional coordinates (direct lattice) 
   0.87500000  0.87500000  0.87500000
   0.12500000  0.12500000  0.12500000

 position of ions in cartesian coordinates  (Angst):
   4.78504314  4.78504314  4.78504314
   0.68357759  0.68357759  0.68357759



--------------------------------------------------------------------------------------------------------


 k-point   1 :   0.0000 0.0000 0.0000  plane waves:     893
 k-point   2 :   0.0909 0.0000 0.0000  plane waves:     899
 k-point   3 :   0.1818 0.0000 0.0000  plane waves:     905
 k-point   4 :   0.2727 0.0000 0.0000  plane waves:     890
 k-point   5 :   0.3636 0.0000 0.0000  plane waves:     884
 k-point   6 :   0.4545 0.0000 0.0000  plane waves:     884
 k-point   7 :   0.0909 0.0909 0.0000  plane waves:     889
 k-point   8 :   0.1818 0.0909 0.0000  plane waves:     898
 k-point   9 :   0.2727 0.0909 0.0000  plane waves:     887
 k-point  10 :   0.3636 0.0909 0.0000  plane waves:     886
 k-point  11 :   0.4545 0.0909 0.0000  plane waves:     887
 k-point  12 :  -0.4545 0.0909 0.0000  plane waves:     881
 k-point  13 :  -0.3636 0.0909 0.0000  plane waves:     881
 k-point  14 :  -0.2727 0.0909 0.0000  plane waves:     885
 k-point  15 :  -0.1818 0.0909 0.0000  plane waves:     897
 k-point  16 :  -0.0909 0.0909 0.0000  plane waves:     903
 k-point  17 :   0.1818 0.1818 0.0000  plane waves:     885
 k-point  18 :   0.2727 0.1818 0.0000  plane waves:     880
 k-point  19 :   0.3636 0.1818 0.0000  plane waves:     880
 k-point  20 :   0.4545 0.1818 0.0000  plane waves:     887
 k-point  21 :  -0.4545 0.1818 0.0000  plane waves:     879
 k-point  22 :  -0.3636 0.1818 0.0000  plane waves:     880
 k-point  23 :  -0.2727 0.1818 0.0000  plane waves:     893
 k-point  24 :  -0.1818 0.1818 0.0000  plane waves:     889
 k-point  25 :   0.2727 0.2727 0.0000  plane waves:     882
 k-point  26 :   0.3636 0.2727 0.0000  plane waves:     887
 k-point  27 :   0.4545 0.2727 0.0000  plane waves:     891
 k-point  28 :  -0.4545 0.2727 0.0000  plane waves:     880
 k-point  29 :  -0.3636 0.2727 0.0000  plane waves:     878
 k-point  30 :  -0.2727 0.2727 0.0000  plane waves:     891
 k-point  31 :   0.3636 0.3636 0.0000  plane waves:     882
 k-point  32 :   0.4545 0.3636 0.0000  plane waves:     893
 k-point  33 :  -0.4545 0.3636 0.0000  plane waves:     890
 k-point  34 :  -0.3636 0.3636 0.0000  plane waves:     890
 k-point  35 :   0.4545 0.4545 0.0000  plane waves:     886
 k-point  36 :  -0.4545 0.4545 0.0000  plane waves:     888
 k-point  37 :   0.2727 0.1818 0.0909  plane waves:     895
 k-point  38 :   0.3636 0.1818 0.0909  plane waves:     884
 k-point  39 :   0.4545 0.1818 0.0909  plane waves:     884
 k-point  40 :  -0.4545 0.1818 0.0909  plane waves:     887
 k-point  41 :   0.3636 0.2727 0.0909  plane waves:     888
 k-point  42 :   0.4545 0.2727 0.0909  plane waves:     881
 k-point  43 :  -0.4545 0.2727 0.0909  plane waves:     891
 k-point  44 :  -0.3636 0.2727 0.0909  plane waves:     881
 k-point  45 :  -0.2727 0.2727 0.0909  plane waves:     888
 k-point  46 :  -0.1818 0.2727 0.0909  plane waves:     885
 k-point  47 :   0.4545 0.3636 0.0909  plane waves:     881
 k-point  48 :  -0.4545 0.3636 0.0909  plane waves:     884
 k-point  49 :  -0.3636 0.3636 0.0909  plane waves:     889
 k-point  50 :  -0.2727 0.3636 0.0909  plane waves:     883
 k-point  51 :  -0.4545 0.4545 0.0909  plane waves:     886
 k-point  52 :  -0.3636 0.4545 0.0909  plane waves:     885
 k-point  53 :  -0.4545 0.3636 0.1818  plane waves:     887
 k-point  54 :  -0.3636 0.3636 0.1818  plane waves:     888
 k-point  55 :  -0.3636 0.4545 0.1818  plane waves:     893
 k-point  56 :  -0.2727 0.4545 0.1818  plane waves:     884

 maximum and minimum number of plane-waves per node :       905      878

 maximum number of plane-waves:       905
 maximum index in each direction: 
   IXMAX=    7   IYMAX=    6   IZMAX=    6
   IXMIN=   -7   IYMIN=   -7   IZMIN=   -6


 serial   3D FFT for wavefunctions
 parallel 3D FFT for charge:
    minimum data exchange during FFTs selected (reduces bandwidth)


 total amount of memory used by VASP MPI-rank0    63293. kBytes
=======================================================================

   base      :      30000. kBytes
   nonl-proj :       7334. kBytes
   fftplans  :      13127. kBytes
   grid      :       5205. kBytes
   one-center:         31. kBytes
   wavefun   :       7596. kBytes

     INWAV:  cpu time      0.0001: real time      0.0001
 Broyden mixing: mesh for mixing (old mesh)
   NGX = 13   NGY = 13   NGZ = 13
  (NGX  = 56   NGY  = 56   NGZ  = 56)
  gives a total of   2197 points

 initial charge density was supplied:
 charge density of overlapping atoms calculated
 number of electron      28.0000000 magnetization 
 keeping initial charge density in first step


--------------------------------------------------------------------------------------------------------


 Maximum index for augmentation-charges        70109 (set IRDMAX)


--------------------------------------------------------------------------------------------------------


 First call to EWALD:  gamma=   0.514
 Maximum number of real-space cells 3x 3x 3
 Maximum number of reciprocal cells 3x 3x 3

    FEWALD:  cpu time      0.0009: real time      0.0009


--------------------------------------- Iteration      1(   1)  ---------------------------------------


    POTLOK:  cpu time      0.0634: real time      0.0634
    SETDIJ:  cpu time      0.0995: real time      0.0995
     EDDAV:  cpu time      1.2998: real time      1.3071
       DOS:  cpu time      0.0006: real time      0.0006
    --------------------------------------------
      LOOP:  cpu time      1.4633: real time      1.4706

 eigenvalue-minimisations  :  2080
 total energy-change (2. order) : 0.1486154E+03  (-0.1422742E+04)
 number of electron      28.0000000 magnetization 
 augmentation part       28.0000000 magnetization 

 Free energy of the ion-electron system (eV)
  ---------------------------------------------------
  alpha Z        PSCENC =       143.31627977
  Ewald energy   TEWEN  =     -2780.12958164
  -Hartree energ DENC   =     -1458.07546006
  -exchange      EXHF   =         0.00000000
  -V(xc)+E(xc)   XCENC  =       146.70346065
  PAW double counting   =      3673.23166740    -4543.15754504
  entropy T*S    EENTRO =        -0.00050874
  eigenvalues    EBANDS =      -225.73803553
  atomic energy  EATOM  =      5192.46507749
  Solvation  Ediel_sol  =         0.00000000
  ---------------------------------------------------
  free energy    TOTEN  =       148.61535430 eV

  energy without entropy =      148.61586303  energy(sigma->0) =      148.61560867


--------------------------------------------------------------------------------------------------------




--------------------------------------- Iteration      1(   2)  ---------------------------------------


     EDDAV:  cpu time      1.3678: real time      1.3683
       DOS:  cpu time      0.0007: real time      0.0007
    --------------------------------------------
      LOOP:  cpu time      1.3685: real time      1.3690

 eigenvalue-minimisations  :  2056
 total energy-change (2. order) :-0.1396637E+03  (-0.1371771E+03)
 number of electron      28.0000000 magnetization 
 augmentation part       28.0000000 magnetization 

 Free energy of the ion-electron system (eV)
  ---------------------------------------------------
  alpha Z        PSCENC =       143.31627977
  Ewald energy   TEWEN  =     -2780.12958164
  -Hartree energ DENC   =     -1458.07546006
  -exchange      EXHF   =         0.00000000
  -V(xc)+E(xc)   XCENC  =       146.70346065
  PAW double counting   =      3673.23166740    -4543.15754504
  entropy T*S    EENTRO =        -0.00040838
  eigenvalues    EBANDS =      -365.40183319
  atomic energy  EATOM  =      5192.46507749
  Solvation  Ediel_sol  =         0.00000000
  ---------------------------------------------------
  free energy    TOTEN  =         8.95165699 eV

  energy without entropy =        8.95206537  energy(sigma->0) =        8.95186118


--------------------------------------------------------------------------------------------------------




--------------------------------------- Iteration      1(   3)  ---------------------------------------


     EDDAV:  cpu time      1.2699: real time      1.2700
       DOS:  cpu time      0.0006: real time      0.0006
    --------------------------------------------
      LOOP:  cpu time      1.2705: real time      1.2706

 eigenvalue-minimisations  :  2186
 total energy-change (2. order) :-0.1736781E+02  (-0.1721833E+02)
 number of electron      28.0000000 magnetization 
 augmentation part       28.0000000 magnetization 

 Free energy of the ion-electron system (eV)
  ---------------------------------------------------
  alpha Z        PSCENC =       143.31627977
  Ewald energy   TEWEN  =     -2780.12958164
  -Hartree energ DENC   =     -1458.07546006
  -exchange      EXHF   =         0.00000000
  -V(xc)+E(xc)   XCENC  =       146.70346065
  PAW double counting   =      3673.23166740    -4543.15754504
  entropy T*S    EENTRO =        -0.00000000
  eigenvalues    EBANDS =      -382.77004927
  atomic energy  EATOM  =      5192.46507749
  Solvation  Ediel_sol  =         0.00000000
  ---------------------------------------------------
  free energy    TOTEN  =        -8.41615071 eV

  energy without entropy =       -8.41615071  energy(sigma->0) =       -8.41615071


--------------------------------------------------------------------------------------------------------




--------------------------------------- Iteration      1(   4)  ---------------------------------------


     EDDAV:  cpu time      1.6355: real time      1.6356
       DOS:  cpu time      0.0003: real time      0.0003
    --------------------------------------------
      LOOP:  cpu time      1.6358: real time      1.6359

 eigenvalue-minimisations  :  2396
 total energy-change (2. order) :-0.4860048E+00  (-0.4851195E+00)
 number of electron      28.0000000 magnetization 
 augmentation part       28.0000000 magnetization 

 Free energy of the ion-electron system (eV)
  ---------------------------------------------------
  alpha Z        PSCENC =       143.31627977
  Ewald energy   TEWEN  =     -2780.12958164
  -Hartree energ DENC   =     -1458.07546006
  -exchange      EXHF   =         0.00000000
  -V(xc)+E(xc)   XCENC  =       146.70346065
  PAW double counting   =      3673.23166740    -4543.15754504
  entropy T*S    EENTRO =        -0.00000000
  eigenvalues    EBANDS =      -383.25605405
  atomic energy  EATOM  =      5192.46507749
  Solvation  Ediel_sol  =         0.00000000
  ---------------------------------------------------
  free energy    TOTEN  =        -8.90215549 eV

  energy without entropy =       -8.90215549  energy(sigma->0) =       -8.90215549


--------------------------------------------------------------------------------------------------------




--------------------------------------- Iteration      1(   5)  ---------------------------------------


     EDDAV:  cpu time      1.3338: real time      1.3340
       DOS:  cpu time      0.0004: real time      0.0004
    CHARGE:  cpu time      0.1762: real time      0.1762
    MIXING:  cpu time      0.0009: real time      0.0009
    --------------------------------------------
      LOOP:  cpu time      1.5113: real time      1.5115

 eigenvalue-minimisations  :  2244
 total energy-change (2. order) :-0.7390449E-02  (-0.7389936E-02)
 number of electron      28.0000002 magnetization 
 augmentation part       16.8067105 magnetization 

 Broyden mixing:
  rms(total) = 0.36709E+00    rms(broyden)= 0.36706E+00
  rms(prec ) = 0.79082E+00
  weight for this iteration     100.00

 Free energy of the ion-electron system (eV)
  ---------------------------------------------------
  alpha Z        PSCENC =       143.31627977
  Ewald energy   TEWEN  =     -2780.12958164
  -Hartree energ DENC   =     -1458.07546006
  -exchange      EXHF   =         0.00000000
  -V(xc)+E(xc)   XCENC  =       146.70346065
  PAW double counting   =      3673.23166740    -4543.15754504
  entropy T*S    EENTRO =        -0.00000000
  eigenvalues    EBANDS =      -383.26344450
  atomic energy  EATOM  =      5192.46507749
  Solvation  Ediel_sol  =         0.00000000
  ---------------------------------------------------
  free energy    TOTEN  =        -8.90954594 eV

  energy without entropy =       -8.90954594  energy(sigma->0) =       -8.90954594


--------------------------------------------------------------------------------------------------------




--------------------------------------- Iteration      1(   6)  ---------------------------------------


    POTLOK:  cpu time      0.0533: real time      0.0533
    SETDIJ:  cpu time      0.0891: real time      0.0891
     EDDAV:  cpu time      1.2381: real time      1.2382
       DOS:  cpu time      0.0005: real time      0.0005
    CHARGE:  cpu time      0.1749: real time      0.1749
    MIXING:  cpu time      0.0012: real time      0.0012
    --------------------------------------------
      LOOP:  cpu time      1.5572: real time      1.5572

 eigenvalue-minimisations  :  2170
 total energy-change (2. order) : 0.8015706E-01  (-0.3029771E-02)
 number of electron      28.0000002 magnetization 
 augmentation part       16.8160057 magnetization 

 Broyden mixing:
  rms(total) = 0.21885E+00    rms(broyden)= 0.21885E+00
  rms(prec ) = 0.47636E+00
  weight for this iteration     100.00

 eigenvalues of (default mixing * dielectric matrix)
  average eigenvalue GAMMA=   2.4637
  2.4637

 Free energy of the ion-electron system (eV)
  ---------------------------------------------------
  alpha Z        PSCENC =       143.31627977
  Ewald energy   TEWEN  =     -2780.12958164
  -Hartree energ DENC   =     -1457.90576061
  -exchange      EXHF   =         0.00000000
  -V(xc)+E(xc)   XCENC  =       146.53411587
  PAW double counting   =      4080.43444936    -4953.25587994
  entropy T*S    EENTRO =        -0.00000000
  eigenvalues    EBANDS =      -380.28808919
  atomic energy  EATOM  =      5192.46507749
  Solvation  Ediel_sol  =         0.00000000
  ---------------------------------------------------
  free energy    TOTEN  =        -8.82938888 eV

  energy without entropy =       -8.82938888  energy(sigma->0) =       -8.82938888


--------------------------------------------------------------------------------------------------------




--------------------------------------- Iteration      1(   7)  ---------------------------------------


    POTLOK:  cpu time      0.0492: real time      0.0492
    SETDIJ:  cpu time      0.0906: real time      0.0906
     EDDAV:  cpu time      1.3089: real time      1.3089
       DOS:  cpu time      0.0004: real time      0.0004
    CHARGE:  cpu time      0.1559: real time      0.1559
    MIXING:  cpu time      0.0009: real time      0.0009
    --------------------------------------------
      LOOP:  cpu time      1.6059: real time      1.6060

 eigenvalue-minimisations  :  2160
 total energy-change (2. order) : 0.4365781E-01  (-0.7190795E-02)
 number of electron      28.0000002 magnetization 
 augmentation part       16.8306568 magnetization 

 Broyden mixing:
  rms(total) = 0.15949E-01    rms(broyden)= 0.15947E-01
  rms(prec ) = 0.31425E-01
  weight for this iteration     100.00

 eigenvalues of (default mixing * dielectric matrix)
  average eigenvalue GAMMA=   2.6845
  2.6845  2.6845

 Free energy of the ion-electron system (eV)
  ---------------------------------------------------
  alpha Z        PSCENC =       143.31627977
  Ewald energy   TEWEN  =     -2780.12958164
  -Hartree energ DENC   =     -1457.88006783
  -exchange      EXHF   =         0.00000000
  -V(xc)+E(xc)   XCENC  =       146.32070112
  PAW double counting   =      4750.22826441    -5627.43555858
  entropy T*S    EENTRO =        -0.00000000
  eigenvalues    EBANDS =      -375.67084581
  atomic energy  EATOM  =      5192.46507749
  Solvation  Ediel_sol  =         0.00000000
  ---------------------------------------------------
  free energy    TOTEN  =        -8.78573107 eV

  energy without entropy =       -8.78573107  energy(sigma->0) =       -8.78573107


--------------------------------------------------------------------------------------------------------




--------------------------------------- Iteration      1(   8)  ---------------------------------------


    POTLOK:  cpu time      0.0440: real time      0.0440
    SETDIJ:  cpu time      0.0769: real time      0.0769
     EDDAV:  cpu time      1.3087: real time      1.3088
       DOS:  cpu time      0.0004: real time      0.0004
    CHARGE:  cpu time      0.1628: real time      0.1628
    MIXING:  cpu time      0.0008: real time      0.0008
    --------------------------------------------
      LOOP:  cpu time      1.5935: real time      1.5937

 eigenvalue-minimisations  :  2204
 total energy-change (2. order) :-0.1793328E-02  (-0.6504221E-03)
 number of electron      28.0000002 magnetization 
 augmentation part       16.8286221 magnetization 

 Broyden mixing:
  rms(total) = 0.44694E-02    rms(broyden)= 0.44689E-02
  rms(prec ) = 0.11293E-01
  weight for this iteration     100.00

 eigenvalues of (default mixing * dielectric matrix)
  average eigenvalue GAMMA=   2.0342
  2.7924  2.4410  0.8691

 Free energy of the ion-electron system (eV)
  ---------------------------------------------------
  alpha Z        PSCENC =       143.31627977
  Ewald energy   TEWEN  =     -2780.12958164
  -Hartree energ DENC   =     -1458.12581826
  -exchange      EXHF   =         0.00000000
  -V(xc)+E(xc)   XCENC  =       146.33457617
  PAW double counting   =      4714.62235317    -5592.10183458
  entropy T*S    EENTRO =        -0.00000000
  eigenvalues    EBANDS =      -375.16857652
  atomic energy  EATOM  =      5192.46507749
  Solvation  Ediel_sol  =         0.00000000
  ---------------------------------------------------
  free energy    TOTEN  =        -8.78752440 eV

  energy without entropy =       -8.78752440  energy(sigma->0) =       -8.78752440


--------------------------------------------------------------------------------------------------------




--------------------------------------- Iteration      1(   9)  ---------------------------------------


    POTLOK:  cpu time      0.0470: real time      0.0470
    SETDIJ:  cpu time      0.0850: real time      0.0850
     EDDAV:  cpu time      1.3180: real time      1.3181
       DOS:  cpu time      0.0010: real time      0.0010
    CHARGE:  cpu time      0.1695: real time      0.1695
    MIXING:  cpu time      0.0010: real time      0.0010
    --------------------------------------------
      LOOP:  cpu time      1.6214: real time      1.6215

 eigenvalue-minimisations  :  2334
 total energy-change (2. order) :-0.1078413E-03  (-0.1895915E-04)
 number of electron      28.0000002 magnetization 
 augmentation part       16.8291083 magnetization 

 Broyden mixing:
  rms(total) = 0.14750E-02    rms(broyden)= 0.14738E-02
  rms(prec ) = 0.33894E-02
  weight for this iteration     100.00

 eigenvalues of (default mixing * dielectric matrix)
  average eigenvalue GAMMA=   2.0723
  2.9526  2.2147  2.2147  0.9073

 Free energy of the ion-electron system (eV)
  ---------------------------------------------------
  alpha Z        PSCENC =       143.31627977
  Ewald energy   TEWEN  =     -2780.12958164
  -Hartree energ DENC   =     -1458.12412787
  -exchange      EXHF   =         0.00000000
  -V(xc)+E(xc)   XCENC  =       146.33063442
  PAW double counting   =      4722.39607039    -5599.84208720
  entropy T*S    EENTRO =        -0.00000000
  eigenvalues    EBANDS =      -375.19989759
  atomic energy  EATOM  =      5192.46507749
  Solvation  Ediel_sol  =         0.00000000
  ---------------------------------------------------
  free energy    TOTEN  =        -8.78763224 eV

  energy without entropy =       -8.78763224  energy(sigma->0) =       -8.78763224


--------------------------------------------------------------------------------------------------------




--------------------------------------- Iteration      1(  10)  ---------------------------------------


    POTLOK:  cpu time      0.0511: real time      0.0511
    SETDIJ:  cpu time      0.0881: real time      0.0881
     EDDAV:  cpu time      1.5224: real time      1.5225
       DOS:  cpu time      0.0004: real time      0.0004
    CHARGE:  cpu time      0.1607: real time      0.1607
    MIXING:  cpu time      0.0010: real time      0.0010
    --------------------------------------------
      LOOP:  cpu time      1.8237: real time      1.8238

 eigenvalue-minimisations  :  2646
 total energy-change (2. order) :-0.6367966E-05  (-0.3868979E-05)
 number of electron      28.0000002 magnetization 
 augmentation part       16.8295605 magnetization 

 Broyden mixing:
  rms(total) = 0.77077E-03    rms(broyden)= 0.76855E-03
  rms(prec ) = 0.17640E-02
  weight for this iteration     100.00

 eigenvalues of (default mixing * dielectric matrix)
  average eigenvalue GAMMA=   1.8698
  3.0432  2.3148  2.3148  0.8381  0.8381

 Free energy of the ion-electron system (eV)
  ---------------------------------------------------
  alpha Z        PSCENC =       143.31627977
  Ewald energy   TEWEN  =     -2780.12958164
  -Hartree energ DENC   =     -1458.12957541
  -exchange      EXHF   =         0.00000000
  -V(xc)+E(xc)   XCENC  =       146.32967097
  PAW double counting   =      4723.63424614    -5600.96335679
  entropy T*S    EENTRO =        -0.00000000
  eigenvalues    EBANDS =      -375.31039915
  atomic energy  EATOM  =      5192.46507749
  Solvation  Ediel_sol  =         0.00000000
  ---------------------------------------------------
  free energy    TOTEN  =        -8.78763861 eV

  energy without entropy =       -8.78763861  energy(sigma->0) =       -8.78763861


--------------------------------------------------------------------------------------------------------




--------------------------------------- Iteration      1(  11)  ---------------------------------------


    POTLOK:  cpu time      0.0536: real time      0.0537
    SETDIJ:  cpu time      0.0847: real time      0.0847
     EDDAV:  cpu time      1.3666: real time      1.3667
       DOS:  cpu time      0.0005: real time      0.0005
    CHARGE:  cpu time      0.1672: real time      0.1673
    MIXING:  cpu time      0.0011: real time      0.0011
    --------------------------------------------
      LOOP:  cpu time      1.6737: real time      1.6738

 eigenvalue-minimisations  :  2384
 total energy-change (2. order) :-0.1003616E-05  (-0.7412872E-06)
 number of electron      28.0000002 magnetization 
 augmentation part       16.8294772 magnetization 

 Broyden mixing:
  rms(total) = 0.13986E-03    rms(broyden)= 0.12725E-03
  rms(prec ) = 0.26627E-03
  weight for this iteration     100.00

 eigenvalues of (default mixing * dielectric matrix)
  average eigenvalue GAMMA=   1.9660
  3.3166  2.7149  2.3144  1.5902  0.9300  0.9300

 Free energy of the ion-electron system (eV)
  ---------------------------------------------------
  alpha Z        PSCENC =       143.31627977
  Ewald energy   TEWEN  =     -2780.12958164
  -Hartree energ DENC   =     -1458.19651861
  -exchange      EXHF   =         0.00000000
  -V(xc)+E(xc)   XCENC  =       146.33216963
  PAW double counting   =      4722.32201881    -5599.65765312
  entropy T*S    EENTRO =        -0.00000000
  eigenvalues    EBANDS =      -375.23943195
  atomic energy  EATOM  =      5192.46507749
  Solvation  Ediel_sol  =         0.00000000
  ---------------------------------------------------
  free energy    TOTEN  =        -8.78763961 eV

  energy without entropy =       -8.78763961  energy(sigma->0) =       -8.78763961


--------------------------------------------------------------------------------------------------------




--------------------------------------- Iteration      1(  12)  ---------------------------------------


    POTLOK:  cpu time      0.0410: real time      0.0410
    SETDIJ:  cpu time      0.0909: real time      0.0909
     EDDAV:  cpu time      0.8545: real time      0.8546
       DOS:  cpu time      0.0004: real time      0.0004
    --------------------------------------------
      LOOP:  cpu time      0.9868: real time      0.9869

 eigenvalue-minimisations  :  1136
 total energy-change (2. order) :-0.9316864E-08  (-0.2946874E-07)
 number of electron      28.0000002 magnetization 
 augmentation part       16.8294772 magnetization 

 Free energy of the ion-electron system (eV)
  ---------------------------------------------------
  alpha Z        PSCENC =       143.31627977
  Ewald energy   TEWEN  =     -2780.12958164
  -Hartree energ DENC   =     -1458.19734456
  -exchange      EXHF   =         0.00000000
  -V(xc)+E(xc)   XCENC  =       146.33227387
  PAW double counting   =      4722.36289619    -5599.70652976
  entropy T*S    EENTRO =        -0.00000000
  eigenvalues    EBANDS =      -375.23071099
  atomic energy  EATOM  =      5192.46507749
  Solvation  Ediel_sol  =         0.00000000
  ---------------------------------------------------
  free energy    TOTEN  =        -8.78763962 eV

  energy without entropy =       -8.78763962  energy(sigma->0) =       -8.78763962


--------------------------------------------------------------------------------------------------------




 average (electrostatic) potential at core
  the test charge radii are     0.9911
  (the norm of the test charge is              1.0000)
       1 -73.4187       2 -73.4187



 E-fermi :   6.2735     XC(G=0): -10.4187     alpha+bet :-11.5343

 Fermi energy:         6.2735480500

 k-point     1 :       0.0000    0.0000    0.0000
  band No.  band energies     occupation 
      1     -18.9469      2.00000
      2     -18.9469      2.00000
      3     -18.9469      2.00000
      4     -18.9023      2.00000
      5     -18.9023      2.00000
      6     -18.6295      2.00000
      7     -18.6295      2.00000
      8     -18.6295      2.00000
      9     -18.6047      2.00000
     10     -18.6047      2.00000
     11      -7.5546      2.00000
     12       6.0427      2.00000
     13       6.0427      2.00000
     14       6.0427      2.00000
     15       7.0481      0.00000
     16       8.6320      0.00000
     17       8.6320      0.00000
     18       8.6320      0.00000

 k-point     2 :       0.0909    0.0000    0.0000
  band No.  band energies     occupation 
      1     -18.9535      2.00000
      2     -18.9535      2.00000
      3     -18.9451      2.00000
      4     -18.8932      2.00000
      5     -18.8932      2.00000
      6     -18.6376      2.00000
      7     -18.6376      2.00000
      8     -18.6316      2.00000
      9     -18.5980      2.00000
     10     -18.5980      2.00000
     11      -7.4435      2.00000
     12       4.5148      2.00000
     13       5.8169      2.00000
     14       5.8170      2.00000
     15       7.6202      0.00000
     16       8.9288      0.00000
     17       8.9288      0.00000
     18       9.3199      0.00000

 k-point     3 :       0.1818    0.0000    0.0000
  band No.  band energies     occupation 
      1     -18.9643      2.00000
      2     -18.9643      2.00000
      3     -18.9405      2.00000
      4     -18.8763      2.00000
      5     -18.8763      2.00000
      6     -18.6509      2.00000
      7     -18.6509      2.00000
      8     -18.6372      2.00000
      9     -18.5879      2.00000
     10     -18.5879      2.00000
     11      -7.1142      2.00000
     12       2.5485      2.00000
     13       5.3699      2.00000
     14       5.3699      2.00000
     15       7.3621      0.00000
     16       9.4963      0.00000
     17       9.4963      0.00000
     18      10.9929      0.00000

 k-point     4 :       0.2727    0.0000    0.0000
  band No.  band energies     occupation 
      1     -18.9721      2.00000
      2     -18.9721      2.00000
      3     -18.9343      2.00000
      4     -18.8612      2.00000
      5     -18.8612      2.00000
      6     -18.6612      2.00000
      7     -18.6612      2.00000
      8     -18.6445      2.00000
      9     -18.5802      2.00000
     10     -18.5802      2.00000
     11      -6.5847      2.00000
     12       0.7135      2.00000
     13       4.9492      2.00000
     14       4.9492      2.00000
     15       6.9936      0.00000
     16       9.8619      0.00000
     17       9.8619      0.00000
     18      12.7244      0.00000

 k-point     5 :       0.3636    0.0000    0.0000
  band No.  band energies     occupation 
      1     -18.9760      2.00000
      2     -18.9760      2.00000
      3     -18.9288      2.00000
      4     -18.8520      2.00000
      5     -18.8520      2.00000
      6     -18.6667      2.00000
      7     -18.6667      2.00000
      8     -18.6516      2.00000
      9     -18.5758      2.00000
     10     -18.5758      2.00000
     11      -5.9122      2.00000
     12      -0.8543      2.00000
     13       4.6462      2.00000
     14       4.6462      2.00000
     15       6.7193      0.00000
     16       9.9033      0.00000
     17       9.9033      0.00000
     18      13.4317      0.00000

 k-point     6 :       0.4545    0.0000    0.0000
  band No.  band energies     occupation 
      1     -18.9775      2.00000
      2     -18.9775      2.00000
      3     -18.9255      2.00000
      4     -18.8483      2.00000
      5     -18.8483      2.00000
      6     -18.6683      2.00000
      7     -18.6683      2.00000
      8     -18.6558      2.00000
      9     -18.5741      2.00000
     10     -18.5741      2.00000
     11      -5.3063      2.00000
     12      -1.9142      2.00000
     13       4.4902      2.00000
     14       4.4902      2.00000
     15       6.5782      0.00000
     16       9.8419      0.00000
     17       9.8419      0.00000
     18      13.2304      0.00000

 k-point     7 :       0.0909    0.0909    0.0000
  band No.  band energies     occupation 
      1     -18.9546      2.00000
      2     -18.9506      2.00000
      3     -18.9506      2.00000
      4     -18.8960      2.00000
      5     -18.8836      2.00000
      6     -18.6567      2.00000
      7     -18.6231      2.00000
      8     -18.6231      2.00000
      9     -18.6104      2.00000
     10     -18.5914      2.00000
     11      -7.4062      2.00000
     12       4.5686      2.00000
     13       5.4158      2.00000
     14       5.4158      2.00000
     15       8.2063      0.00000
     16       8.4388      0.00000
     17       9.4451      0.00000
     18       9.4451      0.00000

 k-point     8 :       0.1818    0.0909    0.0000
  band No.  band energies     occupation 
      1     -18.9660      2.00000
      2     -18.9580      2.00000
      3     -18.9468      2.00000
      4     -18.8841      2.00000
      5     -18.8654      2.00000
      6     -18.6759      2.00000
      7     -18.6318      2.00000
      8     -18.6223      2.00000
      9     -18.6026      2.00000
     10     -18.5833      2.00000
     11      -7.1487      2.00000
     12       3.0415      2.00000
     13       4.9241      2.00000
     14       5.0414      2.00000
     15       8.1823      0.00000
     16       8.6710      0.00000
     17      10.1377      0.00000
     18      10.6473      0.00000

 k-point     9 :       0.2727    0.0909    0.0000
  band No.  band energies     occupation 
      1     -18.9772      2.00000
      2     -18.9666      2.00000
      3     -18.9374      2.00000
      4     -18.8687      2.00000
      5     -18.8482      2.00000
      6     -18.6899      2.00000
      7     -18.6457      2.00000
      8     -18.6306      2.00000
      9     -18.5909      2.00000
     10     -18.5740      2.00000
     11      -6.6829      2.00000
     12       1.2618      2.00000
     13       4.5225      2.00000
     14       4.5504      2.00000
     15       7.9651      0.00000
     16       9.1345      0.00000
     17      10.5883      0.00000
     18      11.5896      0.00000

 k-point    10 :       0.3636    0.0909    0.0000
  band No.  band energies     occupation 
      1     -18.9846      2.00000
      2     -18.9730      2.00000
      3     -18.9265      2.00000
      4     -18.8556      2.00000
      5     -18.8383      2.00000
      6     -18.6951      2.00000
      7     -18.6577      2.00000
      8     -18.6432      2.00000
      9     -18.5816      2.00000
     10     -18.5668      2.00000
     11      -6.0468      2.00000
     12      -0.3636      2.00000
     13       4.0844      2.00000
     14       4.2772      2.00000
     15       7.6547      0.00000
     16       9.4795      0.00000
     17      10.6009      0.00000
     18      12.4684      0.00000

 k-point    11 :       0.4545    0.0909    0.0000
  band No.  band energies     occupation 
      1     -18.9879      2.00000
      2     -18.9774      2.00000
      3     -18.9172      2.00000
      4     -18.8459      2.00000
      5     -18.8376      2.00000
      6     -18.6900      2.00000
      7     -18.6680      2.00000
      8     -18.6555      2.00000
      9     -18.5747      2.00000
     10     -18.5634      2.00000
     11      -5.3741      2.00000
     12      -1.6184      2.00000
     13       3.7362      2.00000
     14       4.2090      2.00000
     15       7.4484      0.00000
     16       9.5733      0.00000
     17      10.3897      0.00000
     18      13.4478      0.00000

 k-point    12 :      -0.4545    0.0909    0.0000
  band No.  band energies     occupation 
      1     -18.9873      2.00000
      2     -18.9806      2.00000
      3     -18.9127      2.00000
      4     -18.8433      2.00000
      5     -18.8391      2.00000
      6     -18.6771      2.00000
      7     -18.6770      2.00000
      8     -18.6644      2.00000
      9     -18.5698      2.00000
     10     -18.5648      2.00000
     11      -5.1120      2.00000
     12      -2.0267      2.00000
     13       3.5422      2.00000
     14       4.3175      2.00000
     15       7.3810      0.00000
     16       9.6871      0.00000
     17      10.1831      0.00000
     18      13.7338      0.00000

 k-point    13 :      -0.3636    0.0909    0.0000
  band No.  band energies     occupation 
      1     -18.9833      2.00000
      2     -18.9821      2.00000
      3     -18.9157      2.00000
      4     -18.8514      2.00000
      5     -18.8370      2.00000
      6     -18.6829      2.00000
      7     -18.6685      2.00000
      8     -18.6596      2.00000
      9     -18.5708      2.00000
     10     -18.5676      2.00000
     11      -5.5865      2.00000
     12      -1.2569      2.00000
     13       3.5236      2.00000
     14       4.5881      2.00000
     15       7.4568      0.00000
     16       9.9024      0.00000
     17      10.0364      0.00000
     18      13.6191      0.00000

 k-point    14 :      -0.2727    0.0909    0.0000
  band No.  band energies     occupation 
      1     -18.9806      2.00000
      2     -18.9761      2.00000
      3     -18.9248      2.00000
      4     -18.8610      2.00000
      5     -18.8428      2.00000
      6     -18.6816      2.00000
      7     -18.6667      2.00000
      8     -18.6407      2.00000
      9     -18.5812      2.00000
     10     -18.5691      2.00000
     11      -6.2749      2.00000
     12       0.1531      2.00000
     13       3.6971      2.00000
     14       4.9897      2.00000
     15       7.6644      0.00000
     16       9.8428      0.00000
     17      10.0939      0.00000
     18      12.6006      0.00000

 k-point    15 :      -0.1818    0.0909    0.0000
  band No.  band energies     occupation 
      1     -18.9747      2.00000
      2     -18.9659      2.00000
      3     -18.9361      2.00000
      4     -18.8732      2.00000
      5     -18.8576      2.00000
      6     -18.6717      2.00000
      7     -18.6593      2.00000
      8     -18.6232      2.00000
      9     -18.5956      2.00000
     10     -18.5749      2.00000
     11      -6.8611      2.00000
     12       1.8317      2.00000
     13       4.0878      2.00000
     14       5.4561      2.00000
     15       7.9566      0.00000
     16       9.4299      0.00000
     17       9.8199      0.00000
     18      11.5436      0.00000

 k-point    16 :      -0.0909    0.0909    0.0000
  band No.  band energies     occupation 
      1     -18.9646      2.00000
      2     -18.9551      2.00000
      3     -18.9448      2.00000
      4     -18.8865      2.00000
      5     -18.8769      2.00000
      6     -18.6557      2.00000
      7     -18.6475      2.00000
      8     -18.6166      2.00000
      9     -18.6060      2.00000
     10     -18.5848      2.00000
     11      -7.2593      2.00000
     12       3.4775      2.00000
     13       4.8014      2.00000
     14       5.8266      2.00000
     15       8.0618      0.00000
     16       8.9607      0.00000
     17       9.1448      0.00000
     18      10.4890      0.00000

 k-point    17 :       0.1818    0.1818    0.0000
  band No.  band energies     occupation 
      1     -18.9608      2.00000
      2     -18.9605      2.00000
      3     -18.9605      2.00000
      4     -18.8776      2.00000
      5     -18.8449      2.00000
      6     -18.7030      2.00000
      7     -18.6273      2.00000
      8     -18.6065      2.00000
      9     -18.6065      2.00000
     10     -18.5849      2.00000
     11      -6.9630      2.00000
     12       2.7180      2.00000
     13       4.4078      2.00000
     14       4.4078      2.00000
     15       7.4470      0.00000
     16       9.4524      0.00000
     17      10.9988      0.00000
     18      10.9988      0.00000

 k-point    18 :       0.2727    0.1818    0.0000
  band No.  band energies     occupation 
      1     -18.9761      2.00000
      2     -18.9675      2.00000
      3     -18.9477      2.00000
      4     -18.8630      2.00000
      5     -18.8243      2.00000
      6     -18.7250      2.00000
      7     -18.6426      2.00000
      8     -18.6103      2.00000
      9     -18.5936      2.00000
     10     -18.5768      2.00000
     11      -6.5644      2.00000
     12       1.4742      2.00000
     13       3.8547      2.00000
     14       3.9915      2.00000
     15       7.5338      0.00000
     16       9.3248      0.00000
     17      11.3108      0.00000
     18      11.6768      0.00000

 k-point    19 :       0.3636    0.1818    0.0000
  band No.  band energies     occupation 
      1     -18.9896      2.00000
      2     -18.9743      2.00000
      3     -18.9297      2.00000
      4     -18.8473      2.00000
      5     -18.8104      2.00000
      6     -18.7368      2.00000
      7     -18.6596      2.00000
      8     -18.6293      2.00000
      9     -18.5813      2.00000
     10     -18.5626      2.00000
     11      -5.9779      2.00000
     12       0.0245      2.00000
     13       3.2064      2.00000
     14       3.7441      2.00000
     15       7.7818      0.00000
     16       9.7350      0.00000
     17      11.0996      0.00000
     18      11.8358      0.00000

 k-point    20 :       0.4545    0.1818    0.0000
  band No.  band energies     occupation 
      1     -18.9988      2.00000
      2     -18.9801      2.00000
      3     -18.9110      2.00000
      4     -18.8329      2.00000
      5     -18.8090      2.00000
      6     -18.7343      2.00000
      7     -18.6763      2.00000
      8     -18.6501      2.00000
      9     -18.5714      2.00000
     10     -18.5522      2.00000
     11      -5.2875      2.00000
     12      -1.2682      2.00000
     13       2.6581      2.00000
     14       3.6903      2.00000
     15       7.7719      0.00000
     16      10.2761      0.00000
     17      11.5996      0.00000
     18      11.6560      0.00000

 k-point    21 :      -0.4545    0.1818    0.0000
  band No.  band energies     occupation 
      1     -19.0025      2.00000
      2     -18.9847      2.00000
      3     -18.8972      2.00000
      4     -18.8209      2.00000
      5     -18.8195      2.00000
      6     -18.7187      2.00000
      7     -18.6918      2.00000
      8     -18.6658      2.00000
      9     -18.5642      2.00000
     10     -18.5482      2.00000
     11      -4.8134      2.00000
     12      -1.9872      2.00000
     13       2.2897      2.00000
     14       3.8323      2.00000
     15       7.8121      0.00000
     16      10.2887      0.00000
     17      11.2676      0.00000
     18      13.2487      0.00000

 k-point    22 :      -0.3636    0.1818    0.0000
  band No.  band energies     occupation 
      1     -18.9999      2.00000
      2     -18.9877      2.00000
      3     -18.8932      2.00000
      4     -18.8367      2.00000
      5     -18.8145      2.00000
      6     -18.7027      2.00000
      7     -18.6958      2.00000
      8     -18.6718      2.00000
      9     -18.5603      2.00000
     10     -18.5523      2.00000
     11      -5.0934      2.00000
     12      -1.5703      2.00000
     13       2.1430      2.00000
     14       4.1538      2.00000
     15       7.9883      0.00000
     16      10.3596      0.00000
     17      10.9454      0.00000
     18      13.7767      0.00000

 k-point    23 :      -0.2727    0.1818    0.0000
  band No.  band energies     occupation 
      1     -18.9913      2.00000
      2     -18.9877      2.00000
      3     -18.9022      2.00000
      4     -18.8527      2.00000
      5     -18.8195      2.00000
      6     -18.7028      2.00000
      7     -18.6795      2.00000
      8     -18.6592      2.00000
      9     -18.5644      2.00000
     10     -18.5607      2.00000
     11      -5.7701      2.00000
     12      -0.4149      2.00000
     13       2.2784      2.00000
     14       4.6130      2.00000
     15       8.2560      0.00000
     16      10.5414      0.00000
     17      10.5441      0.00000
     18      12.2075      0.00000

 k-point    24 :      -0.1818    0.1818    0.0000
  band No.  band energies     occupation 
      1     -18.9833      2.00000
      2     -18.9782      2.00000
      3     -18.9202      2.00000
      4     -18.8641      2.00000
      5     -18.8360      2.00000
      6     -18.6906      2.00000
      7     -18.6711      2.00000
      8     -18.6342      2.00000
      9     -18.5825      2.00000
     10     -18.5656      2.00000
     11      -6.4011      2.00000
     12       0.8590      2.00000
     13       2.8578      2.00000
     14       5.1159      2.00000
     15       8.4243      0.00000
     16       9.9368      0.00000
     17      10.2817      0.00000
     18      11.4631      0.00000

 k-point    25 :       0.2727    0.2727    0.0000
  band No.  band energies     occupation 
      1     -18.9724      2.00000
      2     -18.9724      2.00000
      3     -18.9554      2.00000
      4     -18.8487      2.00000
      5     -18.7983      2.00000
      6     -18.7561      2.00000
      7     -18.6539      2.00000
      8     -18.5940      2.00000
      9     -18.5858      2.00000
     10     -18.5858      2.00000
     11      -6.2322      2.00000
     12       0.8950      2.00000
     13       3.5449      2.00000
     14       3.5449      2.00000
     15       6.8267      0.00000
     16       8.7303      0.00000
     17      12.7383      0.00000
     18      12.7383      0.00000

 k-point    26 :       0.3636    0.2727    0.0000
  band No.  band energies     occupation 
      1     -18.9856      2.00000
      2     -18.9782      2.00000
      3     -18.9377      2.00000
      4     -18.8313      2.00000
      5     -18.7797      2.00000
      6     -18.7757      2.00000
      7     -18.6714      2.00000
      8     -18.6162      2.00000
      9     -18.5754      2.00000
     10     -18.5670      2.00000
     11      -5.7024      2.00000
     12      -0.1345      2.00000
     13       2.9326      2.00000
     14       3.2645      2.00000
     15       7.0076      0.00000
     16       8.4894      0.00000
     17      12.7863      0.00000
     18      13.2877      0.00000

 k-point    27 :       0.4545    0.2727    0.0000
  band No.  band energies     occupation 
      1     -19.0000      2.00000
      2     -18.9836      2.00000
      3     -18.9123      2.00000
      4     -18.8138      2.00000
      5     -18.7880      2.00000
      6     -18.7650      2.00000
      7     -18.6907      2.00000
      8     -18.6443      2.00000
      9     -18.5661      2.00000
     10     -18.5501      2.00000
     11      -5.0266      2.00000
     12      -1.2190      2.00000
     13       2.1370      2.00000
     14       3.1824      2.00000
     15       7.2469      0.00000
     16       9.3222      0.00000
     17      12.4281      0.00000
     18      13.1853      0.00000

 k-point    28 :      -0.4545    0.2727    0.0000
  band No.  band energies     occupation 
      1     -19.0095      2.00000
      2     -18.9879      2.00000
      3     -18.8913      2.00000
      4     -18.7980      2.00000
      5     -18.7849      2.00000
      6     -18.7642      2.00000
      7     -18.7099      2.00000
      8     -18.6664      2.00000
      9     -18.5593      2.00000
     10     -18.5397      2.00000
     11      -4.4135      2.00000
     12      -2.0355      2.00000
     13       1.5187      2.00000
     14       3.3055      2.00000
     15       7.3706      0.00000
     16      10.9602      0.00000
     17      12.1561      0.00000
     18      12.7969      0.00000

 k-point    29 :      -0.3636    0.2727    0.0000
  band No.  band energies     occupation 
      1     -19.0114      2.00000
      2     -18.9908      2.00000
      3     -18.8819      2.00000
      4     -18.8024      2.00000
      5     -18.7892      2.00000
      6     -18.7428      2.00000
      7     -18.7233      2.00000
      8     -18.6755      2.00000
      9     -18.5558      2.00000
     10     -18.5384      2.00000
     11      -4.4765      2.00000
     12      -1.9474      2.00000
     13       1.2260      2.00000
     14       3.6208      2.00000
     15       7.6304      0.00000
     16      11.9392      0.00000
     17      12.2912      0.00000
     18      13.0118      0.00000

 k-point    30 :      -0.2727    0.2727    0.0000
  band No.  band energies     occupation 
      1     -19.0048      2.00000
      2     -18.9911      2.00000
      3     -18.8847      2.00000
      4     -18.8326      2.00000
      5     -18.7978      2.00000
      6     -18.7199      2.00000
      7     -18.7068      2.00000
      8     -18.6739      2.00000
      9     -18.5562      2.00000
     10     -18.5472      2.00000
     11      -5.1159      2.00000
     12      -1.1524      2.00000
     13       1.4117      2.00000
     14       4.0881      2.00000
     15       8.0146      0.00000
     16      11.5261      0.00000
     17      11.9655      0.00000
     18      12.0214      0.00000

 k-point    31 :       0.3636    0.3636    0.0000
  band No.  band energies     occupation 
      1     -18.9825      2.00000
      2     -18.9825      2.00000
      3     -18.9365      2.00000
      4     -18.8120      2.00000
      5     -18.8106      2.00000
      6     -18.7483      2.00000
      7     -18.6885      2.00000
      8     -18.6178      2.00000
      9     -18.5677      2.00000
     10     -18.5677      2.00000
     11      -5.2278      2.00000
     12      -0.8607      2.00000
     13       2.9396      2.00000
     14       2.9396      2.00000
     15       6.4938      0.00000
     16       7.6560      0.00000
     17      14.5177      0.00000
     18      14.5177      0.00000

 k-point    32 :       0.4545    0.3636    0.0000
  band No.  band energies     occupation 
      1     -18.9929      2.00000
      2     -18.9863      2.00000
      3     -18.9139      2.00000
      4     -18.8298      2.00000
      5     -18.7924      2.00000
      6     -18.7288      2.00000
      7     -18.7085      2.00000
      8     -18.6427      2.00000
      9     -18.5609      2.00000
     10     -18.5551      2.00000
     11      -4.5843      2.00000
     12      -1.7334      2.00000
     13       2.3727      2.00000
     14       2.8110      2.00000
     15       6.7522      0.00000
     16       7.6664      0.00000
     17      14.5551      0.00000
     18      14.8852      0.00000

 k-point    33 :      -0.4545    0.3636    0.0000
  band No.  band energies     occupation 
      1     -19.0061      2.00000
      2     -18.9893      2.00000
      3     -18.8882      2.00000
      4     -18.8265      2.00000
      5     -18.7738      2.00000
      6     -18.7295      2.00000
      7     -18.7285      2.00000
      8     -18.6696      2.00000
      9     -18.5562      2.00000
     10     -18.5416      2.00000
     11      -3.8991      2.00000
     12      -2.4902      2.00000
     13       1.5727      2.00000
     14       2.8914      2.00000
     15       6.9418      0.00000
     16       8.9382      0.00000
     17      14.1836      0.00000
     18      14.5084      0.00000

 k-point    34 :      -0.3636    0.3636    0.0000
  band No.  band energies     occupation 
      1     -19.0134      2.00000
      2     -18.9911      2.00000
      3     -18.8800      2.00000
      4     -18.7917      2.00000
      5     -18.7682      2.00000
      6     -18.7593      2.00000
      7     -18.7393      2.00000
      8     -18.6772      2.00000
      9     -18.5544      2.00000
     10     -18.5349      2.00000
     11      -3.8593      2.00000
     12      -2.5018      2.00000
     13       1.0747      2.00000
     14       3.1726      2.00000
     15       7.2068      0.00000
     16      10.8322      0.00000
     17      13.6416      0.00000
     18      13.6584      0.00000

 k-point    35 :       0.4545    0.4545    0.0000
  band No.  band energies     occupation 
      1     -18.9882      2.00000
      2     -18.9882      2.00000
      3     -18.9046      2.00000
      4     -18.8617      2.00000
      5     -18.7708      2.00000
      6     -18.7284      2.00000
      7     -18.6988      2.00000
      8     -18.6540      2.00000
      9     -18.5571      2.00000
     10     -18.5571      2.00000
[...]
     16       9.1387      0.00000
     17      11.3041      0.00000
     18      12.5878      0.00000

 k-point    42 :       0.4545    0.2727    0.0909
  band No.  band energies     occupation 
      1     -18.9952      2.00000
      2     -18.9856      2.00000
      3     -18.9127      2.00000
      4     -18.8323      2.00000
      5     -18.7894      2.00000
      6     -18.7584      2.00000
      7     -18.6747      2.00000
      8     -18.6458      2.00000
      9     -18.5664      2.00000
     10     -18.5560      2.00000
     11      -5.4678      2.00000
     12      -0.6375      2.00000
     13       2.3264      2.00000
     14       3.4327      2.00000
     15       8.0908      0.00000
     16       9.6542      0.00000
     17      10.9074      0.00000
     18      13.0246      0.00000

 k-point    43 :      -0.4545    0.2727    0.0909
  band No.  band energies     occupation 
      1     -19.0052      2.00000
      2     -18.9894      2.00000
      3     -18.8922      2.00000
      4     -18.8180      2.00000
      5     -18.7896      2.00000
      6     -18.7534      2.00000
      7     -18.6943      2.00000
      8     -18.6666      2.00000
      9     -18.5598      2.00000
     10     -18.5449      2.00000
     11      -4.7882      2.00000
     12      -1.6754      2.00000
     13       1.8800      2.00000
     14       3.2617      2.00000
     15       8.2027      0.00000
     16      10.3681      0.00000
     17      11.2722      0.00000
     18      12.9568      0.00000

 k-point    44 :      -0.3636    0.2727    0.0909
  band No.  band energies     occupation 
      1     -19.0082      2.00000
      2     -18.9915      2.00000
      3     -18.8822      2.00000
      4     -18.8139      2.00000
      5     -18.7941      2.00000
      6     -18.7406      2.00000
      7     -18.7077      2.00000
      8     -18.6757      2.00000
      9     -18.5564      2.00000
     10     -18.5416      2.00000
     11      -4.5289      2.00000
     12      -2.0214      2.00000
     13       1.6331      2.00000
     14       3.3586      2.00000
     15       8.3860      0.00000
     16      10.1447      0.00000
     17      12.5013      0.00000
     18      13.1818      0.00000

 k-point    45 :      -0.2727    0.2727    0.0909
  band No.  band energies     occupation 
      1     -19.0035      2.00000
      2     -18.9920      2.00000
      3     -18.8863      2.00000
      4     -18.8304      2.00000
      5     -18.7950      2.00000
      6     -18.7363      2.00000
      7     -18.6919      2.00000
      8     -18.6747      2.00000
      9     -18.5564      2.00000
     10     -18.5479      2.00000
     11      -5.0318      2.00000
     12      -1.3251      2.00000
     13       1.6520      2.00000
     14       3.6875      2.00000
     15       8.6944      0.00000
     16       9.9927      0.00000
     17      11.5957      0.00000
     18      12.8613      0.00000

 k-point    46 :      -0.1818    0.2727    0.0909
  band No.  band energies     occupation 
      1     -18.9919      2.00000
      2     -18.9896      2.00000
      3     -18.9040      2.00000
      4     -18.8471      2.00000
      5     -18.8074      2.00000
      6     -18.7284      2.00000
      7     -18.6674      2.00000
      8     -18.6605      2.00000
      9     -18.5632      2.00000
     10     -18.5594      2.00000
     11      -5.7188      2.00000
     12      -0.2893      2.00000
     13       2.0906      2.00000
     14       4.1542      2.00000
     15       9.0039      0.00000
     16       9.5264      0.00000
     17      10.8114      0.00000
     18      12.2171      0.00000

 k-point    47 :       0.4545    0.3636    0.0909
  band No.  band energies     occupation 
      1     -18.9902      2.00000
      2     -18.9890      2.00000
      3     -18.9183      2.00000
      4     -18.8130      2.00000
      5     -18.7992      2.00000
      6     -18.7563      2.00000
      7     -18.6899      2.00000
      8     -18.6369      2.00000
      9     -18.5613      2.00000
     10     -18.5596      2.00000
     11      -5.1183      2.00000
     12      -1.0081      2.00000
     13       2.4453      2.00000
     14       2.8866      2.00000
     15       7.3323      0.00000
     16       8.2641      0.00000
     17      12.7189      0.00000
     18      14.4653      0.00000

 k-point    48 :      -0.4545    0.3636    0.0909
  band No.  band energies     occupation 
      1     -19.0035      2.00000
      2     -18.9929      2.00000
      3     -18.8904      2.00000
      4     -18.8063      2.00000
      5     -18.7950      2.00000
      6     -18.7464      2.00000
      7     -18.7109      2.00000
      8     -18.6655      2.00000
      9     -18.5548      2.00000
     10     -18.5450      2.00000
     11      -4.4219      2.00000
     12      -1.8852      2.00000
     13       1.7728      2.00000
     14       2.6910      2.00000
     15       7.7191      0.00000
     16       9.1584      0.00000
     17      12.2832      0.00000
     18      14.6288      0.00000

 k-point    49 :      -0.3636    0.3636    0.0909
  band No.  band energies     occupation 
      1     -19.0119      2.00000
      2     -18.9949      2.00000
      3     -18.8734      2.00000
      4     -18.7924      2.00000
      5     -18.7803      2.00000
      6     -18.7574      2.00000
      7     -18.7297      2.00000
      8     -18.6816      2.00000
      9     -18.5518      2.00000
     10     -18.5364      2.00000
     11      -3.9601      2.00000
     12      -2.3912      2.00000
     13       1.2339      2.00000
     14       2.8167      2.00000
     15       7.9324      0.00000
     16      10.9326      0.00000
     17      11.9003      0.00000
     18      13.4855      0.00000

 k-point    50 :      -0.2727    0.3636    0.0909
  band No.  band energies     occupation 
      1     -19.0118      2.00000
      2     -18.9950      2.00000
      3     -18.8732      2.00000
      4     -18.8015      2.00000
      5     -18.7725      2.00000
      6     -18.7605      2.00000
      7     -18.7257      2.00000
      8     -18.6813      2.00000
      9     -18.5519      2.00000
     10     -18.5375      2.00000
     11      -4.3559      2.00000
     12      -1.9633      2.00000
     13       1.1247      2.00000
     14       3.1774      2.00000
     15       8.2901      0.00000
     16      11.4358      0.00000
     17      11.8774      0.00000
     18      12.9962      0.00000

 k-point    51 :      -0.4545    0.4545    0.0909
  band No.  band energies     occupation 
      1     -18.9950      2.00000
      2     -18.9949      2.00000
      3     -18.8886      2.00000
      4     -18.8478      2.00000
      5     -18.7721      2.00000
      6     -18.7297      2.00000
      7     -18.7099      2.00000
      8     -18.6684      2.00000
      9     -18.5514      2.00000
     10     -18.5513      2.00000
     11      -3.9034      2.00000
     12      -2.5082      2.00000
     13       2.2289      2.00000
     14       2.3687      2.00000
     15       7.2881      0.00000
     16       7.5963      0.00000
     17      14.3485      0.00000
     18      15.6052      0.00000

 k-point    52 :      -0.3636    0.4545    0.0909
  band No.  band energies     occupation 
      1     -19.0064      2.00000
      2     -18.9958      2.00000
      3     -18.8690      2.00000
      4     -18.8358      2.00000
      5     -18.7581      2.00000
      6     -18.7477      2.00000
      7     -18.7176      2.00000
      8     -18.6871      2.00000
      9     -18.5501      2.00000
     10     -18.5407      2.00000
     11      -3.4015      2.00000
     12      -2.9720      2.00000
     13       1.5678      2.00000
     14       2.4485      2.00000
     15       7.5883      0.00000
     16       8.9536      0.00000
     17      13.8745      0.00000
     18      13.9486      0.00000

 k-point    53 :      -0.4545    0.3636    0.1818
  band No.  band energies     occupation 
      1     -19.0020      2.00000
      2     -18.9968      2.00000
      3     -18.8858      2.00000
      4     -18.8159      2.00000
      5     -18.7747      2.00000
      6     -18.7696      2.00000
      7     -18.6964      2.00000
      8     -18.6715      2.00000
      9     -18.5519      2.00000
     10     -18.5480      2.00000
     11      -4.8080      2.00000
     12      -1.4177      2.00000
     13       1.6507      2.00000
     14       2.9367      2.00000
     15       9.1660      0.00000
     16       9.7344      0.00000
     17      10.4205      0.00000
     18      14.2517      0.00000

 k-point    54 :      -0.3636    0.3636    0.1818
  band No.  band energies     occupation 
      1     -19.0099      2.00000
      2     -18.9992      2.00000
      3     -18.8660      2.00000
      4     -18.8002      2.00000
      5     -18.7786      2.00000
      6     -18.7610      2.00000
      7     -18.7214      2.00000
      8     -18.6868      2.00000
      9     -18.5486      2.00000
     10     -18.5387      2.00000
     11      -4.1670      2.00000
     12      -2.1543      2.00000
     13       1.3515      2.00000
     14       2.5932      2.00000
     15       9.5448      0.00000
     16       9.9229      0.00000
     17      11.2461      0.00000
     18      13.2004      0.00000

 k-point    55 :      -0.3636    0.4545    0.1818
  band No.  band energies     occupation 
      1     -19.0060      2.00000
      2     -19.0035      2.00000
      3     -18.8574      2.00000
      4     -18.8192      2.00000
      5     -18.7771      2.00000
      6     -18.7360      2.00000
      7     -18.7298      2.00000
      8     -18.6948      2.00000
      9     -18.5439      2.00000
     10     -18.5415      2.00000
     11      -3.7284      2.00000
     12      -2.5694      2.00000
     13       1.6110      2.00000
     14       2.0351      2.00000
     15       9.0767      0.00000
     16       9.2934      0.00000
     17      11.8062      0.00000
     18      13.5062      0.00000

 k-point    56 :      -0.2727    0.4545    0.1818
  band No.  band energies     occupation 
      1     -19.0109      2.00000
      2     -19.0037      2.00000
      3     -18.8472      2.00000
      4     -18.8074      2.00000
      5     -18.7737      2.00000
      6     -18.7481      2.00000
      7     -18.7357      2.00000
      8     -18.7018      2.00000
      9     -18.5435      2.00000
     10     -18.5368      2.00000
     11      -3.5350      2.00000
     12      -2.7378      2.00000
     13       1.3335      2.00000
     14       2.0727      2.00000
     15       9.4550      0.00000
     16      11.0892      0.00000
     17      11.3525      0.00000
     18      11.5099      0.00000


--------------------------------------------------------------------------------------------------------


 soft charge-density along one line, spin component           1
         0         1         2         3         4         5         6         7         8         9
 total charge-density along one line

 pseudopotential strength for first ion, spin component:           1
-21.407   0.000  -0.000   0.000   0.000   3.980  -0.000   0.000
  0.000 -21.407   0.000   0.000  -0.000  -0.000   3.980  -0.000
 -0.000   0.000 -21.405   0.000  -0.000   0.000  -0.000   3.980
  0.000   0.000   0.000 -21.407   0.000  -0.000  -0.000  -0.000
  0.000  -0.000  -0.000   0.000 -21.405  -0.000   0.000   0.000
  3.980  -0.000   0.000  -0.000  -0.000   2.113   0.000   0.000
 -0.000   3.980  -0.000  -0.000   0.000   0.000   2.113  -0.000
  0.000  -0.000   3.980  -0.000   0.000   0.000  -0.000   2.112
 -0.000  -0.000  -0.000   3.980  -0.000   0.000   0.000  -0.000
 -0.000   0.000   0.000  -0.000   3.980  -0.000   0.000  -0.000
  0.000   0.000  -0.000   0.000   0.000  -0.000  -0.000   0.000
  0.000   0.000  -0.000   0.000   0.000  -0.000  -0.000   0.000
 -0.000  -0.000  -0.000  -0.002  -0.000   0.000   0.000   0.000
 -0.002  -0.000   0.000  -0.000  -0.000   0.002   0.000  -0.000
 -0.000  -0.002  -0.000  -0.000   0.000   0.000   0.002   0.000
 -0.000  -0.000  -0.000  -0.004  -0.000   0.000   0.000   0.000
 -0.004  -0.000   0.000  -0.000  -0.000   0.003   0.000  -0.000
 -0.000  -0.004  -0.000  -0.000   0.000   0.000   0.003   0.000
 total augmentation occupancy for first ion, spin component:           1
  2.009   0.000  -0.000  -0.000   0.000   0.025  -0.000  -0.000  -0.000   0.000  -0.000   0.000  -0.000   0.064  -0.000   0.000
  0.000   2.009  -0.000   0.000   0.000  -0.000   0.025  -0.000   0.000   0.000   0.000  -0.000   0.000   0.000   0.064  -0.000
 -0.000  -0.000   2.006   0.000   0.000  -0.000  -0.000   0.014   0.000   0.000   0.000  -0.000   0.000  -0.000  -0.000  -0.000
 -0.000   0.000   0.000   2.009  -0.000  -0.000   0.000   0.000   0.025  -0.000   0.000   0.000   0.064  -0.000   0.000  -0.019
 -0.000   0.000  -0.000  -0.000   2.006   0.000   0.000   0.000  -0.000   0.014   0.000  -0.000  -0.000   0.000   0.000   0.000
  0.025  -0.000  -0.000  -0.000   0.000   0.053  -0.000  -0.000  -0.000   0.000  -0.000   0.000  -0.000   0.254  -0.000   0.000
 -0.000   0.025  -0.000   0.000   0.000  -0.000   0.053  -0.000   0.000   0.000  -0.000  -0.000   0.000   0.000   0.254  -0.000
 -0.000  -0.000   0.014   0.000   0.000  -0.000  -0.000   0.017   0.000   0.000  -0.000   0.000   0.000  -0.000  -0.000  -0.000
 -0.000   0.000   0.000   0.025  -0.000  -0.000   0.000   0.000   0.053  -0.000  -0.000  -0.000   0.254  -0.000   0.000  -0.045
  0.000   0.000   0.000  -0.000   0.014  -0.000   0.000   0.000  -0.000   0.017   0.000   0.000  -0.000  -0.000   0.000   0.000
 -0.000   0.000   0.000   0.000  -0.000  -0.000   0.000  -0.000  -0.000   0.000   3.879  -1.265  -0.000  -0.000  -0.000  -0.000
  0.000  -0.000  -0.000   0.000   0.000   0.000  -0.000   0.000   0.000   0.000  -1.265   0.590  -0.000  -0.000   0.000   0.000
 -0.000   0.000   0.000   0.064  -0.000  -0.000   0.000   0.000   0.254  -0.000  -0.000   0.000   2.264  -0.000   0.000  -0.391
  0.064   0.000  -0.000  -0.000  -0.000   0.254   0.000  -0.000  -0.000   0.000  -0.000  -0.000  -0.000   2.264  -0.000   0.000
 -0.000   0.064  -0.000   0.000   0.000  -0.000   0.254  -0.000   0.000   0.000  -0.000   0.000   0.000   0.000   2.264  -0.000
  0.000  -0.000  -0.000  -0.019   0.000   0.000  -0.000  -0.000  -0.045   0.000  -0.000   0.000  -0.391   0.000  -0.000   0.077
 -0.019  -0.000   0.000   0.000   0.000  -0.045  -0.000   0.000   0.000  -0.000  -0.000   0.000   0.000  -0.391   0.000  -0.000
  0.000  -0.019   0.000  -0.000  -0.000   0.000  -0.045   0.000  -0.000  -0.000  -0.000   0.000  -0.000   0.000  -0.391   0.000


------------------------ aborting loop because EDIFF is reached ----------------------------------------


    CHARGE:  cpu time      0.1606: real time      0.1607
    FORLOC:  cpu time      0.0010: real time      0.0010
    FORNL :  cpu time      0.5011: real time      0.5012
    STRESS:  cpu time      1.4988: real time      1.4989
    FORCOR:  cpu time      0.0506: real time      0.0506
    FORHAR:  cpu time      0.0121: real time      0.0121
    MIXING:  cpu time      0.0010: real time      0.0010
    OFIELD:  cpu time      0.0001: real time      0.0000

  FORCE on cell =-STRESS in cart. coord.  units (eV):
  Direction    XX          YY          ZZ          XY          YZ          ZX
  --------------------------------------------------------------------------------------
  Alpha Z   143.31628   143.31628   143.31628
  Ewald    -926.71028  -926.71028  -926.71028     0.00000    -0.00000    -0.00000
  Hartree   486.06511   486.06511   486.06511     0.00000     0.00000     0.00000
  E(xc)    -165.22220  -165.22220  -165.22220     0.00001     0.00001     0.00001
  Local       5.93783     5.93783     5.93783     0.00021     0.00021     0.00021
  n-local    61.33608    62.76188    56.52783     2.46838    -1.25863     0.37354
  augment   252.01122   252.01122   252.01122    -0.00016    -0.00017    -0.00017
  Kinetic   150.17966   148.03277   144.88905     4.34489    -0.92661     1.18970
  Fock        0.00000     0.00000     0.00000     0.00000     0.00000     0.00000
  -------------------------------------------------------------------------------------
  Total       3.30705     3.30705     3.30705     0.00000     0.00000    -0.00000
  in kB     129.59192   129.59192   129.59192     0.00000     0.00000    -0.00000
  external pressure =      129.59 kB  Pullay stress =        0.00 kB


 VOLUME and BASIS-vectors are now :
 -----------------------------------------------------------------------------
  energy-cutoff  :      450.00
  volume of cell :       40.89
      direct lattice vectors                 reciprocal lattice vectors
     0.000000000  2.734310366  2.734310366    -0.182861465  0.182861465  0.182861465
     2.734310366  0.000000000  2.734310366     0.182861465 -0.182861465  0.182861465
     2.734310366  2.734310366  0.000000000     0.182861465  0.182861465 -0.182861465

  length of vectors
     3.866898804  3.866898804  3.866898804     0.316725349  0.316725349  0.316725349


 FORCES acting on ions
    electron-ion (+dipol)            ewald-force                    non-local-force                 convergence-correction
 -----------------------------------------------------------------------------------------------
   -.582E-06 -.582E-06 -.497E-06   0.822E-14 -.477E-13 -.113E-14   -.203E-15 0.256E-16 -.111E-15   -.141E-06 -.141E-06 -.141E-06
   0.582E-06 0.582E-06 0.497E-06   -.740E-14 0.446E-13 0.362E-14   0.127E-15 0.650E-16 0.120E-15   0.141E-06 0.141E-06 0.141E-06
 -----------------------------------------------------------------------------------------------
   0.773E-11 0.112E-11 -.530E-12   0.825E-15 -.316E-14 0.249E-14   -.759E-16 0.906E-16 0.844E-17   -.367E-13 0.389E-13 -.773E-13


 POSITION                                       TOTAL-FORCE (eV/Angst)
 -----------------------------------------------------------------------------------
      4.78504      4.78504      4.78504         0.000000      0.000000      0.000000
      0.68358      0.68358      0.68358        -0.000000     -0.000000     -0.000000
 -----------------------------------------------------------------------------------
    total drift:                                0.000000      0.000000     -0.000000


--------------------------------------------------------------------------------------------------------



  FREE ENERGIE OF THE ION-ELECTRON SYSTEM (eV)
  ---------------------------------------------------
  free  energy   TOTEN  =        -8.78763962 eV

  energy  without entropy=       -8.78763962  energy(sigma->0) =       -8.78763962



--------------------------------------------------------------------------------------------------------


    POTLOK:  cpu time      0.1201: real time      0.1201


--------------------------------------------------------------------------------------------------------


 writing wavefunctions
     LOOP+:  cpu time     20.6945: real time     20.7035
    4ORBIT:  cpu time      0.0000: real time      0.0000

 total amount of memory used by VASP MPI-rank0    63293. kBytes
=======================================================================

   base      :      30000. kBytes
   nonl-proj :       7334. kBytes
   fftplans  :      13127. kBytes
   grid      :       5205. kBytes
   one-center:         31. kBytes
   wavefun   :       7596. kBytes

  
  
 General timing and accounting informations for this job:
 ========================================================
  
                  Total CPU time used (sec):       21.844
                            User time (sec):       20.063
                          System time (sec):        1.781
                         Elapsed time (sec):       22.111
  
                   Maximum memory used (kb):      130840.
                   Average memory used (kb):          N/A
  
                          Minor page faults:       289439
                          Major page faults:           20
                 Voluntary context switches:         1282
