    2    2  100    1
  0.2001288E+02  0.3839590E-09  0.3839590E-09  0.3839590E-09  0.5000000E-15
   1.0000000000000000E-004
  CAR 
 unknown system                          
      8    897      8

  0.1262379E-14  0.1262379E-14  0.1262379E-14  0.3051758E-04
      1         -6.192329   1.000000
      2          5.648388   1.000000
      3          5.648403   1.000000
      4          5.648403   1.000000
      5          8.208615   0.000000
      6          8.208631   0.000000
      7          8.208631   0.000000
      8          8.794482   0.000000

  0.3125000E-01  0.1261665E-14  0.1263523E-14  0.2441406E-03
      1         -6.179636   1.000000
      2          5.498776   1.000000
      3          5.627720   1.000000
      4          5.627733   1.000000
      5          8.240398   0.000000
      6          8.240665   0.000000
      7          8.240679   0.000000
      8          8.891596   0.000000

  0.6250000E-01  0.1260781E-14  0.1264167E-14  0.2441406E-03
      1         -6.141830   1.000000
      2          5.116521   1.000000
      3          5.566311   1.000000
      4          5.566324   1.000000
      5          8.250130   0.000000
      6          8.330876   0.000000
      7          8.330891   0.000000
      8          9.200350   0.000000

  0.9375000E-01  0.1264606E-14  0.1264811E-14  0.2441406E-03
      1         -6.078982   1.000000
      2          4.612504   1.000000
      3          5.474952   1.000000
      4          5.474966   1.000000
      5          8.194202   0.000000
      6          8.465762   0.000000
      7          8.465778   0.000000
      8          9.662168   0.000000

  0.1250000E+00  0.1260990E-14  0.1279333E-14  0.2441406E-03
      1         -5.991415   1.000000
      2          4.053769   1.000000
      3          5.364823   1.000000
      4          5.364837   1.000000
      5          8.098141   0.000000
      6          8.627068   0.000000
      7          8.627085   0.000000
      8         10.194035   0.000000

  0.1562500E+00  0.1260357E-14  0.1266100E-14  0.2441406E-03
      1         -5.879583   1.000000
      2          3.472581   1.000000
      3          5.245676   1.000000
      4          5.245689   1.000000
      5          7.981635   0.000000
      6          8.794543   0.000000
      7          8.794560   0.000000
      8         10.752226   0.000000

  0.1875000E+00  0.1278060E-14  0.1280621E-14  0.2441406E-03
      1         -5.744050   1.000000
      2          2.889338   1.000000
      3          5.124192   1.000000
      4          5.124206   1.000000
      5          7.857714   0.000000
      6          8.947920   0.000000
      7          8.947940   0.000000
      8         11.315978   0.000000

  0.2187500E+00  0.1286344E-14  0.1295143E-14  0.2441406E-03
      1         -5.585770   1.000000
      2          2.312490   1.000000
      3          5.006889   1.000000
      4          5.006903   1.000000
      5          7.734052   0.000000
      6          9.068919   0.000000
      7          9.068941   0.000000
      8         11.874713   0.000000

  0.2500000E+00  0.1285711E-14  0.1295788E-14  0.2441406E-03
      1         -5.405925   1.000000
      2          1.750527   1.000000
      3          4.897660   1.000000
      4          4.897675   1.000000
      5          7.617205   0.000000
      6          9.147830   0.000000
      7          9.147855   0.000000
      8         12.416155   0.000000

  0.2812500E+00  0.1275156E-14  0.1310310E-14  0.2441406E-03
      1         -5.206609   1.000000
      2          1.208261   1.000000
      3          4.798331   1.000000
      4          4.798346   1.000000
      5          7.507357   0.000000
      6          9.182142   0.000000
      7          9.182170   0.000000
      8         12.910639   0.000000

  0.3125000E+00  0.1269562E-14  0.1283198E-14  0.2441406E-03
      1         -4.990639   1.000000
      2          0.691343   1.000000
      3          4.710506   1.000000
      4          4.710521   1.000000
      5          7.409020   0.000000
      6          9.179557   0.000000
      7          9.179586   0.000000
      8         13.294679   0.000000

  0.3437500E+00  0.1282807E-14  0.1283842E-14  0.2441406E-03
      1         -4.762508   1.000000
      2          0.206012   1.000000
      3          4.635234   1.000000
      4          4.635249   1.000000
      5          7.323482   0.000000
      6          9.152369   0.000000
      7          9.152401   0.000000
      8         13.474995   0.000000

  0.3750000E+00  0.1277213E-14  0.1284486E-14  0.2441406E-03
      1         -4.529613   1.000000
      2         -0.239928   1.000000
      3          4.572974   1.000000
      4          4.572988   1.000000
      5          7.252641   0.000000
      6          9.113435   0.000000
      7          9.113467   0.000000
      8         13.488130   0.000000

  0.4062500E+00  0.1281541E-14  0.1285131E-14  0.2441406E-03
      1         -4.303603   1.000000
      2         -0.631542   1.000000
      3          4.524403   1.000000
      4          4.524418   1.000000
      5          7.197010   0.000000
      6          9.073404   0.000000
      7          9.073436   0.000000
      8         13.444681   0.000000

  0.4375000E+00  0.1275947E-14  0.1285775E-14  0.2441406E-03
      1         -4.104348   1.000000
      2         -0.949585   1.000000
      3          4.489600   1.000000
      4          4.489615   1.000000
      5          7.157023   0.000000
      6          9.039883   0.000000
      7          9.039915   0.000000
      8         13.396540   0.000000

  0.4687500E+00  0.1270353E-14  0.1286419E-14  0.2441406E-03
      1         -3.960851   1.000000
      2         -1.163881   1.000000
      3          4.469334   1.000000
      4          4.469349   1.000000
      5          7.131707   0.000000
      6          9.018783   0.000000
      7          9.018815   0.000000
      8         13.363122   0.000000

  0.5000000E+00  0.1282592E-14  0.1314819E-14  0.1220703E-03
      1         -3.907802   1.000000
      2         -1.240740   1.000000
      3          4.462359   1.000000
      4          4.462374   1.000000
      5          7.123626   0.000000
      6          9.011108   0.000000
      7          9.011139   0.000000
      8         13.351296   0.000000

  0.3125000E-01  0.3125000E-01  0.1264955E-14  0.1831055E-03
      1         -6.175428   1.000000
      2          5.530445   1.000000
      3          5.578650   1.000000
      4          5.578660   1.000000
      5          8.167230   0.000000
      6          8.300525   0.000000
      7          8.300535   0.000000
      8          8.910851   0.000000

  0.6250000E-01  0.3125000E-01  0.1268281E-14  0.7324219E-03
      1         -6.146008   1.000000
      2          5.232413   1.000000
      3          5.494498   1.000000
      4          5.558382   1.000000
      5          8.161325   0.000000
      6          8.368447   0.000000
      7          8.414773   0.000000
      8          9.132225   0.000000

  0.9375000E-01  0.3125000E-01  0.1261986E-14  0.7324219E-03
      1         -6.091511   1.000000
      2          4.768070   1.000000
      3          5.386296   1.000000
      4          5.508007   1.000000
      5          8.198818   0.000000
      6          8.379725   0.000000
      7          8.568773   0.000000
      8          9.541087   0.000000

  0.1250000E+00  0.3125000E-01  0.1266100E-14  0.7324219E-03
      1         -6.012140   1.000000
      2          4.229861   1.000000
      3          5.264936   1.000000
      4          5.425105   1.000000
      5          8.184948   0.000000
      6          8.438494   0.000000
      7          8.745039   0.000000
      8         10.042354   0.000000

  0.1562500E+00  0.3125000E-01  0.1294499E-14  0.7324219E-03
      1         -5.908358   1.000000
      2          3.658968   1.000000
      3          5.139234   1.000000
      4          5.319011   1.000000
      5          8.097001   0.000000
      6          8.572170   0.000000
      7          8.924696   0.000000
      8         10.573026   0.000000

  0.1875000E+00  0.3125000E-01  0.1253510E-14  0.7324219E-03
      1         -5.780669   1.000000
      2          3.078763   1.000000
      3          5.015036   1.000000
      4          5.200954   1.000000
      5          7.983644   0.000000
      6          8.724398   0.000000
      7          9.088825   0.000000
      8         11.095882   0.000000

  0.2187500E+00  0.3125000E-01  0.1281910E-14  0.7324219E-03
      1         -5.629860   1.000000
      2          2.501795   1.000000
      3          4.898210   1.000000
      4          5.079156   1.000000
      5          7.864456   0.000000
      6          8.862977   0.000000
      7          9.219335   0.000000
      8         11.576083   0.000000

  0.2500000E+00  0.3125000E-01  0.1282554E-14  0.7324219E-03
      1         -5.457036   1.000000
      2          1.936356   1.000000
      3          4.791610   1.000000
      4          4.959660   1.000000
      5          7.748435   0.000000
      6          8.968422   0.000000
      7          9.304866   0.000000
      8         11.970898   0.000000

  0.2812500E+00  0.3125000E-01  0.1297076E-14  0.7324219E-03
      1         -5.264013   1.000000
      2          1.388334   1.000000
      3          4.696893   1.000000
      4          4.846381   1.000000
      5          7.637358   0.000000
      6          9.031437   0.000000
      7          9.341208   0.000000
      8         12.290911   0.000000

  0.3125000E+00  0.3125000E-01  0.1311598E-14  0.7324219E-03
      1         -5.053209   1.000000
      2          0.863540   1.000000
      3          4.615775   1.000000
      4          4.741707   1.000000
      5          7.536532   0.000000
      6          9.055805   0.000000
      7          9.336617   0.000000
      8         12.609887   0.000000

  0.3437500E+00  0.3125000E-01  0.1284486E-14  0.7324219E-03
      1         -4.828565   1.000000
      2          0.367481   1.000000
      3          4.548853   1.000000
      4          4.647301   1.000000
      5          7.447923   0.000000
      6          9.052293   0.000000
      7          9.301133   0.000000
      8         12.947281   0.000000

  0.3750000E+00  0.3125000E-01  0.1285131E-14  0.7324219E-03
      1         -4.596214   1.000000
      2         -0.092116   1.000000
      3          4.496560   1.000000
      4          4.564407   1.000000
      5          7.372620   0.000000
      6          9.031985   0.000000
      7          9.248056   0.000000
      8         13.253036   0.000000

  0.4062500E+00  0.3125000E-01  0.1285775E-14  0.7324219E-03
      1         -4.366085   1.000000
      2         -0.502818   1.000000
      3          4.459189   1.000000
      4          4.493972   1.000000
      5          7.312324   0.000000
      6          9.008090   0.000000
      7          9.190640   0.000000
      8         13.405128   0.000000

  0.4375000E+00  0.3125000E-01  0.1286419E-14  0.7324219E-03
      1         -4.155020   1.000000
      2         -0.847938   1.000000
      3          4.436555   1.000000
      4          4.436980   1.000000
      5          7.267331   0.000000
      6          8.989107   0.000000
      7          9.137302   0.000000
      8         13.425444   0.000000

  0.4687500E+00  0.3125000E-01  0.1287063E-14  0.7324219E-03
      1         -3.989216   1.000000
      2         -1.100586   1.000000
      3          4.392750   1.000000
      4          4.429423   1.000000
      5          7.236536   0.000000
      6          8.981213   0.000000
      7          9.092950   0.000000
      8         13.410779   0.000000

  0.5000000E+00  0.3125000E-01  0.1287707E-14  0.7324219E-03
      1         -3.902651   1.000000
      2         -1.226393   1.000000
      3          4.362768   1.000000
      4          4.436257   1.000000
      5          7.223005   0.000000
      6          8.987153   0.000000
      7          9.061780   0.000000
      8         13.400687   0.000000

 -0.4687500E+00  0.3125000E-01  0.1295494E-14  0.7324219E-03
      1         -3.920741   1.000000
      2         -1.200544   1.000000
      3          4.347321   1.000000
      4          4.456870   1.000000
      5          7.225213   0.000000
      6          9.008500   0.000000
      7          9.045042   0.000000
      8         13.405194   0.000000

 -0.4375000E+00  0.3125000E-01  0.1268382E-14  0.7324219E-03
      1         -4.037411   1.000000
      2         -1.028639   1.000000
      3          4.345762   1.000000
      4          4.491602   1.000000
      5          7.243426   0.000000
      6          9.042915   0.000000
      7          9.044436   0.000000
      8         13.424895   0.000000

 -0.4062500E+00  0.3125000E-01  0.1269026E-14  0.7324219E-03
      1         -4.221897   1.000000
      2         -0.741489   1.000000
      3          4.359304   1.000000
      4          4.540071   1.000000
      5          7.278822   0.000000
      6          9.053700   0.000000
      7          9.093259   0.000000
      8         13.450267   0.000000

 -0.3750000E+00  0.3125000E-01  0.1269671E-14  0.7324219E-03
      1         -4.441746   1.000000
      2         -0.371988   1.000000
      3          4.387574   1.000000
      4          4.601631   1.000000
      5          7.328498   0.000000
      6          9.073288   0.000000
      7          9.150845   0.000000
      8         13.450795   0.000000

 -0.3437500E+00  0.3125000E-01  0.1270315E-14  0.7324219E-03
      1         -4.674056   1.000000
      2          0.056692   1.000000
      3          4.431190   1.000000
      4          4.675825   1.000000
      5          7.393271   0.000000
      6          9.094912   0.000000
      7          9.208993   0.000000
      8         13.357836   0.000000

 -0.3125000E+00  0.3125000E-01  0.1270959E-14  0.7324219E-03
      1         -4.904710   1.000000
      2          0.529554   1.000000
      3          4.489879   1.000000
      4          4.761883   1.000000
      5          7.472585   0.000000
      6          9.108341   0.000000
      7          9.258268   0.000000
      8         13.109686   0.000000

 -0.2812500E+00  0.3125000E-01  0.1271603E-14  0.7324219E-03
      1         -5.125308   1.000000
      2          1.035662   1.000000
      3          4.563325   1.000000
      4          4.858696   1.000000
      5          7.565282   0.000000
      6          9.102829   0.000000
      7          9.285410   0.000000
      8         12.764835   0.000000

 -0.2500000E+00  0.3125000E-01  0.1272247E-14  0.7324219E-03
      1         -5.330522   1.000000
      2          1.568843   1.000000
      3          4.651236   1.000000
      4          4.965069   1.000000
      5          7.670192   0.000000
      6          9.065940   0.000000
      7          9.278365   0.000000
      8         12.376403   0.000000

 -0.2187500E+00  0.3125000E-01  0.1286769E-14  0.7324219E-03
      1         -5.517042   1.000000
      2          2.123004   1.000000
      3          4.752322   1.000000
      4          5.078763   1.000000
      5          7.783870   0.000000
      6          8.988092   0.000000
      7          9.223235   0.000000
      8         11.942233   0.000000

 -0.1875000E+00  0.3125000E-01  0.1273536E-14  0.7324219E-03
      1         -5.682668   1.000000
      2          2.692829   1.000000
      3          4.865623   1.000000
      4          5.197210   1.000000
      5          7.902960   0.000000
      6          8.871048   0.000000
      7          9.117657   0.000000
      8         11.458953   0.000000

 -0.1562500E+00  0.3125000E-01  0.1274180E-14  0.7324219E-03
      1         -5.825881   1.000000
      2          3.271096   1.000000
      3          4.988746   1.000000
      4          5.316430   1.000000
      5          8.024558   0.000000
      6          8.725073   0.000000
      7          8.967992   0.000000
      8         10.942137   0.000000

 -0.1250000E+00  0.3125000E-01  0.1247068E-14  0.7324219E-03
      1         -5.945661   1.000000
      2          3.848749   1.000000
      3          5.118619   1.000000
      4          5.428672   1.000000
      5          8.140978   0.000000
      6          8.568337   0.000000
      7          8.790283   0.000000
      8         10.410655   0.000000

 -0.9375000E-01  0.3125000E-01  0.1254651E-14  0.7324219E-03
      1         -6.041347   1.000000
      2          4.408410   1.000000
      3          5.250119   1.000000
      4          5.525936   1.000000
      5          8.239821   0.000000
      6          8.422136   0.000000
      7          8.605434   0.000000
      8          9.888271   0.000000

 -0.6250000E-01  0.3125000E-01  0.1262235E-14  0.7324219E-03
      1         -6.112454   1.000000
      2          4.919407   1.000000
      3          5.378901   1.000000
      4          5.598014   1.000000
      5          8.299650   0.000000
      6          8.307859   0.000000
      7          8.438856   0.000000
      8          9.413415   0.000000

 -0.3125000E-01  0.3125000E-01  0.1262879E-14  0.3662109E-03
      1         -6.158663   1.000000
      2          5.315064   1.000000
      3          5.507400   1.000000
      4          5.633171   1.000000
      5          8.243354   0.000000
      6          8.275192   0.000000
      7          8.331721   0.000000
      8          9.056198   0.000000

  0.6250000E-01  0.6250000E-01  0.1267532E-14  0.1831055E-03
      1         -6.124973   1.000000
      2          5.217183   1.000000
      3          5.392126   1.000000
      4          5.392135   1.000000
      5          8.050054   0.000000
      6          8.549381   0.000000
      7          8.549391   0.000000
      8          9.207907   0.000000

  0.9375000E-01  0.6250000E-01  0.1271304E-14  0.7324219E-03
      1         -6.078808   1.000000
      2          4.860173   1.000000
      3          5.270566   1.000000
      4          5.348017   1.000000
      5          8.014763   0.000000
      6          8.634004   0.000000
      7          8.720158   0.000000
      8          9.499030   0.000000

  0.1250000E+00  0.6250000E-01  0.1266744E-14  0.7324219E-03
      1         -6.007736   1.000000
      2          4.365269   1.000000
      3          5.140066   1.000000
      4          5.299369   1.000000
      5          8.045241   0.000000
      6          8.619660   0.000000
      7          8.910820   0.000000
      8          9.937575   0.000000

  0.1562500E+00  0.6250000E-01  0.1267388E-14  0.7324219E-03
      1         -5.912106   1.000000
      2          3.819096   1.000000
      3          5.008534   1.000000
      4          5.215319   1.000000
      5          8.100648   0.000000
      6          8.591286   0.000000
      7          9.103699   0.000000
      8         10.407522   0.000000

  0.1875000E+00  0.6250000E-01  0.1268032E-14  0.7324219E-03
      1         -5.792386   1.000000
      2          3.252826   1.000000
      3          4.881200   1.000000
      4          5.105814   1.000000
      5          8.118024   0.000000
      6          8.613361   0.000000
      7          9.280977   0.000000
      8         10.832501   0.000000

  0.2187500E+00  0.6250000E-01  0.1268676E-14  0.7324219E-03
      1         -5.649212   1.000000
      2          2.683375   1.000000
      3          4.763484   1.000000
      4          4.983779   1.000000
      5          8.070409   0.000000
      6          8.700427   0.000000
      7          9.425412   0.000000
      8         11.156955   0.000000

  0.2500000E+00  0.6250000E-01  0.1283198E-14  0.7324219E-03
      1         -5.483672   1.000000
      2          2.120568   1.000000
      3          4.657863   1.000000
      4          4.855875   1.000000
      5          7.986577   0.000000
      6          8.804795   0.000000
      7          9.523428   0.000000
      8         11.393071   0.000000

  0.2812500E+00  0.6250000E-01  0.1283842E-14  0.7324219E-03
      1         -5.297207   1.000000
      2          1.571491   1.000000
      3          4.565866   1.000000
      4          4.729070   1.000000
      5          7.891289   0.000000
      6          8.887412   0.000000
      7          9.569710   0.000000
      8         11.615079   0.000000

  0.3125000E+00  0.6250000E-01  0.1298364E-14  0.7324219E-03
      1         -5.092054   1.000000
      2          1.042404   1.000000
      3          4.488654   1.000000
      4          4.607889   1.000000
      5          7.796518   0.000000
      6          8.934361   0.000000
      7          9.566670   0.000000
      8         11.880687   0.000000

  0.3437500E+00  0.6250000E-01  0.1312886E-14  0.7324219E-03
      1         -4.871550   1.000000
      2          0.539073   1.000000
      3          4.427281   1.000000
      4          4.494819   1.000000
      5          7.709312   0.000000
      6          8.950139   0.000000
      7          9.528345   0.000000
      8         12.206177   0.000000

  0.3750000E+00  0.6250000E-01  0.1285775E-14  0.7324219E-03
      1         -4.640859   1.000000
      2          0.068971   1.000000
      3          4.381926   1.000000
      4          4.391930   1.000000
      5          7.633024   0.000000
      6          8.945182   0.000000
      7          9.467773   0.000000
      8         12.577198   0.000000

  0.4062500E+00  0.6250000E-01  0.1314175E-14  0.7324219E-03
      1         -4.408441   1.000000
      2         -0.357959   1.000000
      3          4.300591   1.000000
      4          4.353090   1.000000
      5          7.569751   0.000000
      6          8.933113   0.000000
      7          9.398275   0.000000
      8         12.957336   0.000000

  0.4375000E+00  0.6250000E-01  0.1287063E-14  0.7324219E-03
      1         -4.188500   1.000000
      2         -0.726299   1.000000
      3          4.222001   1.000000
      4          4.340143   1.000000
      5          7.520041   0.000000
      6          8.923659   0.000000
      7          9.326526   0.000000
      8         13.273025   0.000000

  0.4687500E+00  0.6250000E-01  0.1287707E-14  0.7324219E-03
      1         -4.003780   1.000000
      2         -1.012683   1.000000
      3          4.157018   1.000000
      4          4.343226   1.000000
      5          7.484919   0.000000
      6          8.924621   0.000000
      7          9.262761   0.000000
      8         13.445018   0.000000

  0.5000000E+00  0.6250000E-01  0.1316107E-14  0.7324219E-03
      1         -3.887025   1.000000
      2         -1.184189   1.000000
      3          4.106114   1.000000
      4          4.361632   1.000000
      5          7.465552   0.000000
      6          8.939278   0.000000
      7          9.210047   0.000000
      8         13.509279   0.000000

 -0.4687500E+00  0.6250000E-01  0.1268382E-14  0.7324219E-03
      1         -3.869208   1.000000
      2         -1.209777   1.000000
      3          4.070087   1.000000
      4          4.394690   1.000000
      5          7.462189   0.000000
      6          8.970929   0.000000
      7          9.170835   0.000000
      8         13.533431   0.000000

 -0.4375000E+00  0.6250000E-01  0.1269026E-14  0.7324219E-03
      1         -3.955820   1.000000
      2         -1.083749   1.000000
      3          4.049780   1.000000
      4          4.442377   1.000000
      5          7.474496   0.000000
      6          9.016895   0.000000
      7          9.145929   0.000000
      8         13.541549   0.000000

 -0.4062500E+00  0.6250000E-01  0.1269671E-14  0.7324219E-03
      1         -4.122116   1.000000
      2         -0.831305   1.000000
      3          4.045090   1.000000
      4          4.504028   1.000000
      5          7.503686   0.000000
      6          9.077000   0.000000
      7          9.133789   0.000000
      8         13.525192   0.000000

 -0.3750000E+00  0.6250000E-01  0.1270315E-14  0.7324219E-03
      1         -4.333368   1.000000
      2         -0.486927   1.000000
      3          4.056826   1.000000
      4          4.578684   1.000000
      5          7.546854   0.000000
      6          9.131869   0.000000
      7          9.147450   0.000000
      8         13.443666   0.000000

 -0.3437500E+00  0.6250000E-01  0.1270959E-14  0.7324219E-03
      1         -4.563528   1.000000
      2         -0.077254   1.000000
      3          4.085202   1.000000
      4          4.665453   1.000000
      5          7.604984   0.000000
      6          9.133429   0.000000
      7          9.221570   0.000000
      8         13.242329   0.000000

 -0.3125000E+00  0.6250000E-01  0.1271603E-14  0.7324219E-03
      1         -4.795975   1.000000
      2          0.379739   1.000000
      3          4.130462   1.000000
      4          4.763180   1.000000
      5          7.677334   0.000000
      6          9.130969   0.000000
      7          9.289685   0.000000
      8         12.928794   0.000000

 -0.2812500E+00  0.6250000E-01  0.1272247E-14  0.7324219E-03
      1         -5.020536   1.000000
      2          0.872746   1.000000
      3          4.193208   1.000000
      4          4.870363   1.000000
      5          7.763140   0.000000
      6          9.112836   0.000000
      7          9.339779   0.000000
      8         12.571256   0.000000

 -0.2500000E+00  0.6250000E-01  0.1272891E-14  0.7324219E-03
      1         -5.231220   1.000000
      2          1.393202   1.000000
      3          4.272798   1.000000
      4          4.985049   1.000000
      5          7.860721   0.000000
      6          9.066828   0.000000
      7          9.354832   0.000000
      8         12.211729   0.000000

 -0.2187500E+00  0.6250000E-01  0.1273536E-14  0.7324219E-03
      1         -5.424120   1.000000
      2          1.935052   1.000000
      3          4.369333   1.000000
      4          5.104666   1.000000
      5          7.968237   0.000000
      6          8.984810   0.000000
      7          9.317905   0.000000
      8         11.861149   0.000000

 -0.1875000E+00  0.6250000E-01  0.1288058E-14  0.7324219E-03
      1         -5.596814   1.000000
      2          2.491609   1.000000
      3          4.482719   1.000000
      4          5.225581   1.000000
      5          8.079736   0.000000
      6          8.866821   0.000000
      7          9.220033   0.000000
      8         11.499664   0.000000

 -0.1562500E+00  0.6250000E-01  0.1274824E-14  0.7324219E-03
      1         -5.747486   1.000000
      2          3.054591   1.000000
      3          4.612769   1.000000
      4          5.342906   1.000000
      5          8.194530   0.000000
      6          8.723766   0.000000
      7          9.064124   0.000000
      8         11.105908   0.000000

 -0.1250000E+00  0.6250000E-01  0.1275468E-14  0.7324219E-03
      1         -5.875061   1.000000
      2          3.612673   1.000000
      3          4.760036   1.000000
      4          5.448383   1.000000
      5          8.304863   0.000000
      6          8.574845   0.000000
      7          8.867360   0.000000
      8         10.670606   0.000000

 -0.9375000E-01  0.6250000E-01  0.1262235E-14  0.7324219E-03
      1         -5.978768   1.000000
      2          4.141314   1.000000
      3          4.928915   1.000000
      4          5.532864   1.000000
      5          8.397480   0.000000
      6          8.442295   0.000000
      7          8.653533   0.000000
      8         10.212750   0.000000

 -0.6250000E-01  0.6250000E-01  0.1269818E-14  0.3662109E-03
      1         -6.058045   1.000000
      2          4.597131   1.000000
      3          5.133666   1.000000
      4          5.584635   1.000000
      5          8.347503   0.000000
      6          8.448405   0.000000
      7          8.456373   0.000000
      8          9.772847   0.000000

  0.9375000E-01  0.9375000E-01  0.1270109E-14  0.1831055E-03
      1         -6.040998   1.000000
      2          4.787295   1.000000
      3          5.139006   1.000000
      4          5.139016   1.000000
      5          7.875746   0.000000
      6          8.905897   0.000000
      7          8.905907   0.000000
      8          9.577652   0.000000

  0.1250000E+00  0.9375000E-01  0.1270857E-14  0.7324219E-03
      1         -5.978230   1.000000
      2          4.421228   1.000000
      3          5.001217   1.000000
      4          5.063545   1.000000
      5          7.821626   0.000000
      6          9.001350   0.000000
      7          9.110668   0.000000
      8          9.866903   0.000000

  0.1562500E+00  0.9375000E-01  0.1274971E-14  0.7324219E-03
      1         -5.890800   1.000000
      2          3.929403   1.000000
      3          4.863860   1.000000
      4          4.999477   1.000000
      5          7.844933   0.000000
      6          8.976329   0.000000
      7          9.318344   0.000000
      8         10.243819   0.000000

  0.1875000E+00  0.9375000E-01  0.1268676E-14  0.7324219E-03
      1         -5.779061   1.000000
      2          3.394938   1.000000
      3          4.733938   1.000000
      4          4.905495   1.000000
      5          7.916037   0.000000
      6          8.927140   0.000000
      7          9.511988   0.000000
      8         10.554065   0.000000

  0.2187500E+00  0.9375000E-01  0.1297076E-14  0.7324219E-03
      1         -5.643710   1.000000
      2          2.844308   1.000000
      3          4.614517   1.000000
      4          4.786819   1.000000
      5          7.991899   0.000000
      6          8.895811   0.000000
      7          9.674491   0.000000
      8         10.739755   0.000000

  0.2500000E+00  0.9375000E-01  0.1269965E-14  0.7324219E-03
      1         -5.485598   1.000000
      2          2.292624   1.000000
      3          4.507988   1.000000
      4          4.654192   1.000000
      5          8.033937   0.000000
      6          8.901016   0.000000
      7          9.790686   0.000000
      8         10.855755   0.000000

  0.2812500E+00  0.9375000E-01  0.1284486E-14  0.7324219E-03