       N       E                     dE             d eps       ncg     rms          rms(c)
DAV:   1    -0.108234871600E+02   -0.10823E+02   -0.80382E-02 18248   0.162E+00    0.449E-01
DAV:   2    -0.108223683824E+02    0.11188E-02   -0.10880E-03 19200   0.216E-01    0.264E-01
DAV:   3    -0.108218473662E+02    0.52102E-03   -0.13611E-03 17016   0.191E-01    0.394E-02
DAV:   4    -0.108218494902E+02   -0.21240E-05   -0.13582E-05 19944   0.309E-02    0.282E-02
DAV:   5    -0.108218522768E+02   -0.27866E-05   -0.26645E-06 17168   0.117E-02    0.682E-03
DAV:   6    -0.108218521584E+02    0.11834E-06   -0.19518E-08 21816   0.116E-03    0.291E-03
DAV:   7    -0.108218521785E+02   -0.20090E-07   -0.29276E-08 16936   0.143E-03    0.905E-04
DAV:   8    -0.108218521941E+02   -0.15553E-07   -0.10492E-09  9240   0.218E-04    0.578E-04
DAV:   9    -0.108218521876E+02    0.64877E-08   -0.68575E-11  7816   0.799E-05
   1 F= -.10821852E+02 E0= -.10821852E+02  d E =-.108219E+02
       N       E                     dE             d eps       ncg     rms          rms(c)
DAV:   1    -0.108299659792E+02   -0.81138E-02   -0.22249E-01 18576   0.262E+00    0.428E-01
DAV:   2    -0.108261628478E+02    0.38031E-02   -0.30582E-03 18920   0.351E-01    0.250E-01
DAV:   3    -0.108242114789E+02    0.19514E-02   -0.40465E-03 16960   0.320E-01    0.931E-02
DAV:   4    -0.108242122022E+02   -0.72327E-06   -0.35594E-05 20736   0.517E-02    0.865E-02
DAV:   5    -0.108242010419E+02    0.11160E-04   -0.11408E-05 16824   0.239E-02    0.277E-02
DAV:   6    -0.108242013154E+02   -0.27357E-06   -0.11553E-07 21624   0.301E-03    0.141E-02
DAV:   7    -0.108242013652E+02   -0.49810E-07   -0.20071E-07 16504   0.399E-03    0.554E-03
DAV:   8    -0.108242013417E+02    0.23533E-07   -0.15705E-08 20192   0.868E-04    0.456E-03
DAV:   9    -0.108242014165E+02   -0.74742E-07   -0.20034E-09  8264   0.499E-04    0.542E-04
DAV:  10    -0.108242014226E+02   -0.61858E-08   -0.19955E-10  7672   0.142E-04
   2 F= -.10824201E+02 E0= -.10824201E+02  d E =-.234924E-02
       N       E                     dE             d eps       ncg     rms          rms(c)
DAV:   1    -0.108270509532E+02   -0.28495E-02   -0.37143E-02 18360   0.108E+00    0.175E-01
DAV:   2    -0.108264359066E+02    0.61505E-03   -0.50435E-04 19280   0.143E-01    0.101E-01
DAV:   3    -0.108261160367E+02    0.31987E-03   -0.66564E-04 16920   0.130E-01    0.388E-02
DAV:   4    -0.108261168807E+02   -0.84405E-06   -0.58600E-06 20880   0.211E-02    0.366E-02
DAV:   5    -0.108261190037E+02   -0.21230E-05   -0.18809E-06 16648   0.985E-03    0.140E-02
DAV:   6    -0.108261189657E+02    0.38041E-07   -0.19951E-08 21216   0.132E-03    0.686E-03
DAV:   7    -0.108261190817E+02   -0.11600E-06   -0.28408E-08 16504   0.155E-03    0.166E-03
DAV:   8    -0.108261191053E+02   -0.23669E-07   -0.49687E-09 14288   0.541E-04    0.238E-03
DAV:   9    -0.108261190712E+02    0.34125E-07   -0.37696E-10  7656   0.214E-04    0.509E-04
DAV:  10    -0.108261190635E+02    0.76620E-08   -0.75133E-11  7520   0.938E-05
   3 F= -.10826119E+02 E0= -.10826119E+02  d E =-.426688E-02
