 vasp.6.3.2 27Jun22 (build Jan 20 2026 21:31:33) complex                         
 executed on             LinuxGNU date 2026.04.11  01:31:05
 running   30 mpi-ranks, with    1 threads/rank
 distrk:  each k-point on   30 cores,    1 groups
 distr:  one band on NCORE=   5 cores,    6 groups


--------------------------------------------------------------------------------------------------------


 INCAR:
   SYSTEM = Ge dimer EXP HSE06 SCF
   NCORE = 5
   ISTART = 1
   ICHARG = 1
   ISPIN = 1
   ENCUT = 450
   PREC = Normal
   ADDGRID = .TRUE.
   LWAVE = .TRUE.
   LCHARG = .TRUE.
   ISMEAR = 0
   SIGMA = 0.05
   EDIFF = 1E-5
   NELM = 100
   AMIX = 0.2
   BMIX = 0.0001
   AMIN = 0.01
   LDIPOL = .TRUE.
   IDIPOL = 3
   GGA = PE
   LHFCALC = .TRUE.
   AEXX = 0.25
   HFSCREEN = 0.2
   ALGO = Damped
   TIME = 0.2
   PRECFOCK = Normal
   HFRCUT = -1
   LORBIT = 11
   NEDOS = 3000

 POTCAR:    PAW_PBE Ge_d 03Jul2007                
 POTCAR:    PAW_PBE H 15Jun2001                   
 POTCAR:    PAW_PBE Ge_d 03Jul2007                
   VRHFIN =Ge: 3d4s4p                                                                               
   LEXCH  = PE                                                                                      
   EATOM  =  2596.2402 eV,  190.8183 Ry                                                             
                                                                                                    
   TITEL  = PAW_PBE Ge_d 03Jul2007                                                                  
   LULTRA =        F    use ultrasoft PP ?                                                          
   IUNSCR =        1    unscreen: 0-lin 1-nonlin 2-no                                               
   RPACOR =    2.000    partial core radius                                                         
   POMASS =   72.610; ZVAL   =   14.000    mass and valenz                                          
   RCORE  =    2.300    outmost cutoff radius                                                       
   RWIGS  =    2.300; RWIGS  =    1.217    wigner-seitz radius (au A)                               
   ENMAX  =  310.294; ENMIN  =  232.720 eV                                                          
   ICORE  =        3    local potential                                                             
   LCOR   =        T    correct aug charges                                                         
   LPAW   =        T    paw PP                                                                      
   EAUG   =  531.356                                                                                
   DEXC   =    0.000                                                                                
   RMAX   =    2.342    core radius for proj-oper                                                   
   RAUG   =    1.300    factor for augmentation sphere                                              
   RDEP   =    2.318    radius for radial grids                                                     
   RDEPT  =    1.783    core radius for aug-charge                                                  
                                                                                                    
   Atomic configuration                                                                             
    9 entries                                                                                       
     n  l   j            E        occ.                                                              
     1  0  0.50    -10959.8463   2.0000                                                             
     2  0  0.50     -1371.6056   2.0000                                                             
     2  1  1.50     -1198.4791   6.0000                                                             
     3  0  0.50      -168.4733   2.0000                                                             
     3  1  1.50      -115.6019   6.0000                                                             
     3  2  2.50       -29.3106  10.0000                                                             
     4  0  0.50       -11.7309   2.0000                                                             
     4  1  0.50        -3.8952   2.0000                                                             
     4  3  2.50        -4.0817   0.0000                                                             
   Description                                                                                      
     l       E           TYP  RCUT    TYP  RCUT                                                     
     2    -29.3105938     23  2.200                                                                 
     2    -13.6058260     23  2.200                                                                 
     0    -11.7309493     23  2.300                                                                 
     0     -7.4578696     23  2.300                                                                 
     1     -3.8952261     23  2.300                                                                 
     1      6.1178114     23  2.300                                                                 
     3     -1.3605826     23  2.300                                                                 
  local pseudopotential read in
  partial core-charges read in
  partial kinetic energy density read in
  atomic valenz-charges read in
  non local Contribution for L=           2  read in
    real space projection operators read in
  non local Contribution for L=           2  read in
    real space projection operators read in
  non local Contribution for L=           0  read in
    real space projection operators read in
  non local Contribution for L=           0  read in
    real space projection operators read in
  non local Contribution for L=           1  read in
    real space projection operators read in
  non local Contribution for L=           1  read in
    real space projection operators read in
    PAW grid and wavefunctions read in

   number of l-projection  operators is LMAX  =           6
   number of lm-projection operators is LMMAX =          18

 POTCAR:    PAW_PBE H 15Jun2001                   
   VRHFIN =H: ultrasoft test                                                                        
   LEXCH  = PE                                                                                      
   EATOM  =    12.4884 eV,    0.9179 Ry                                                             
                                                                                                    
   TITEL  = PAW_PBE H 15Jun2001                                                                     
   LULTRA =        F    use ultrasoft PP ?                                                          
   IUNSCR =        0    unscreen: 0-lin 1-nonlin 2-no                                               
   RPACOR =    0.000    partial core radius                                                         
   POMASS =    1.000; ZVAL   =    1.000    mass and valenz                                          
   RCORE  =    1.100    outmost cutoff radius                                                       
   RWIGS  =    0.700; RWIGS  =    0.370    wigner-seitz radius (au A)                               
   ENMAX  =  250.000; ENMIN  =  200.000 eV                                                          
   RCLOC  =    0.701    cutoff for local pot                                                        
   LCOR   =        T    correct aug charges                                                         
   LPAW   =        T    paw PP                                                                      
   EAUG   =  400.000                                                                                
   RMAX   =    1.123    core radius for proj-oper                                                   
   RAUG   =    1.200    factor for augmentation sphere                                              
   RDEP   =    1.112    radius for radial grids                                                     
   RDEPT  =    0.926    core radius for aug-charge                                                  
                                                                                                    
   Atomic configuration                                                                             
    2 entries                                                                                       
     n  l   j            E        occ.                                                              
     1  0  0.50        -6.4927   1.0000                                                             
     2  1  0.50        -3.4015   0.0000                                                             
   Description                                                                                      
     l       E           TYP  RCUT    TYP  RCUT                                                     
     0     -6.4927494     23  1.100                                                                 
     0      6.8029130     23  1.100                                                                 
     1     -4.0817478     23  1.100                                                                 
  local pseudopotential read in
  atomic valenz-charges read in
  non local Contribution for L=           0  read in
    real space projection operators read in
  non local Contribution for L=           0  read in
    real space projection operators read in
  non local Contribution for L=           1  read in
    real space projection operators read in
    PAW grid and wavefunctions read in

   number of l-projection  operators is LMAX  =           3
   number of lm-projection operators is LMMAX =           5

 -----------------------------------------------------------------------------
|                                                                             |
|               ----> ADVICE to this user running VASP <----                  |
|                                                                             |
|     You have a (more or less) 'large supercell' and for larger cells it     |
|     might be more efficient to use real-space projection operators.         |
|     Therefore, try LREAL= Auto in the INCAR file.                           |
|     Mind: For very accurate calculation, you might also keep the            |
|     reciprocal projection scheme (i.e. LREAL=.FALSE.).                      |
|                                                                             |
 -----------------------------------------------------------------------------

  PAW_PBE Ge_d 03Jul2007                :
 energy of atom  1       EATOM=-2596.2402
 kinetic energy error for atom=    0.0077 (will be added to EATOM!!)
  PAW_PBE H 15Jun2001                   :
 energy of atom  2       EATOM=  -12.4884
 kinetic energy error for atom=    0.0045 (will be added to EATOM!!)


 POSCAR: Converted by xsd2pos.py
  positions in direct lattice
  velocities in cartesian coordinates
 exchange correlation table for  LEXCH =        8
   RHO(1)=    0.500       N(1)  =     2000
   RHO(2)=  100.500       N(2)  =     4000



--------------------------------------------------------------------------------------------------------


 ion  position               nearest neighbor table
   1  0.000  0.000  0.478-   6 2.45  15 2.45   8 2.45  26 2.45
   2  0.017  0.008  0.657-  16 2.47  27 2.51   9 2.52   7 2.56
   3  0.250  0.250  0.392-   8 2.45  17 2.45   5 2.45  23 2.45
   4  0.250  0.249  0.565-   6 2.44  24 2.45  18 2.46   9 2.46
   5  0.250  0.000  0.349-  37 1.52  38 1.52   3 2.45  21 2.45
   6  0.250  0.000  0.522-   4 2.44   1 2.45  10 2.45  22 2.52
   7  0.250  0.072  0.708-  11 2.56   2 2.56  25 2.57
   8  0.000  0.250  0.435-   3 2.45  12 2.45   1 2.45  19 2.45
   9  1.000  0.250  0.608-   4 2.46  13 2.46  20 2.52   2 2.52
  10  0.500  0.000  0.478-   6 2.45  15 2.45  17 2.45  35 2.45
  11  0.483  0.008  0.657-  16 2.47  36 2.51  18 2.52   7 2.56
  12  0.750  0.250  0.392-   8 2.45  17 2.45  14 2.45  32 2.45
  13  0.750  0.251  0.565-  33 2.44  15 2.45  18 2.46   9 2.46
  14  0.750  0.000  0.349-  39 1.52  40 1.52  12 2.45  30 2.45
  15  0.750  0.000  0.522-   1 2.45  10 2.45  13 2.45  31 2.50
  16  0.750  0.126  0.682-   2 2.47  11 2.47  34 2.57
  17  0.500  0.250  0.435-   3 2.45  12 2.45  10 2.45  28 2.45
  18  0.500  0.250  0.608-  13 2.46   4 2.46  11 2.52  29 2.52
  19  0.000  0.500  0.478-  24 2.45  33 2.45  26 2.45   8 2.45
  20  0.983  0.492  0.657-  25 2.47  27 2.51   9 2.52  34 2.56
  21  0.250  0.750  0.392-  26 2.45  35 2.45   5 2.45  23 2.45
  22  0.250  0.749  0.568-  27 2.50  36 2.50  24 2.50   6 2.52
  23  0.250  0.500  0.349-  41 1.52  42 1.52   3 2.45  21 2.45
  24  0.250  0.500  0.522-  19 2.45  28 2.45   4 2.45  22 2.50
  25  0.250  0.374  0.682-  20 2.47  29 2.47   7 2.57
  26  0.000  0.750  0.435-  21 2.45  30 2.45   1 2.45  19 2.45
  27  0.000  0.750  0.614-  22 2.50  31 2.50  20 2.51   2 2.51
  28  0.500  0.500  0.478-  24 2.45  33 2.45  17 2.45  35 2.45
  29  0.517  0.492  0.657-  25 2.47  36 2.51  18 2.52  34 2.56
  30  0.750  0.750  0.392-  26 2.45  35 2.45  32 2.45  14 2.45
  31  0.750  0.751  0.568-  27 2.50  36 2.50  15 2.50  33 2.52
  32  0.750  0.500  0.349-  43 1.52  44 1.52  12 2.45  30 2.45
  33  0.750  0.500  0.522-  13 2.44  19 2.45  28 2.45  31 2.52
  34  0.750  0.428  0.708-  29 2.56  20 2.56  16 2.57
  35  0.500  0.750  0.435-  21 2.45  30 2.45  28 2.45  10 2.45
  36  0.500  0.750  0.614-  31 2.50  22 2.50  29 2.51  11 2.51
  37  0.405  0.000  0.322-   5 1.52
  38  0.095  0.000  0.322-   5 1.52
  39  0.905  0.000  0.322-  14 1.52
  40  0.595  0.000  0.322-  14 1.52
  41  0.405  0.500  0.322-  23 1.52
  42  0.095  0.500  0.322-  23 1.52
  43  0.905  0.500  0.322-  32 1.52
  44  0.595  0.500  0.322-  32 1.52

  LATTYP: Found a simple tetragonal cell.
 ALAT       =     8.0009132300
 C/A-ratio  =     4.0907049057
  
  Lattice vectors:
  
 A1 = (   8.0009132300,   0.0000000000,   0.0000000000)
 A2 = (   0.0000000000,   8.0009132300,   0.0000000000)
 A3 = (   0.0000000000,   0.0000000000,  32.7293750000)


Analysis of symmetry for initial positions (statically):
=====================================================================
 Subroutine PRICEL returns:
 Original cell was already a primitive cell.
 

 Routine SETGRP: Setting up the symmetry group for a 
 simple tetragonal supercell.


 Subroutine GETGRP returns: Found  2 space group operations
 (whereof  1 operations were pure point group operations)
 out of a pool of 16 trial point group operations.


The static configuration has the point symmetry C_1 .
 The point group associated with its full space group is C_2 .


Analysis of symmetry for dynamics (positions and initial velocities):
=====================================================================
 Subroutine PRICEL returns:
 Original cell was already a primitive cell.
 

 Routine SETGRP: Setting up the symmetry group for a 
 simple tetragonal supercell.


 Subroutine GETGRP returns: Found  2 space group operations
 (whereof  1 operations were pure point group operations)
 out of a pool of 16 trial point group operations.


The dynamic configuration has the point symmetry C_1 .
 The point group associated with its full space group is C_2 .


Analysis of constrained symmetry for selective dynamics:
=====================================================================
 Subroutine PRICEL returns:
 Original cell was already a primitive cell.
 

 Routine SETGRP: Setting up the symmetry group for a 
 simple tetragonal supercell.


 Subroutine GETGRP returns: Found  2 space group operations
 (whereof  1 operations were pure point group operations)
 out of a pool of 16 trial point group operations.


The constrained configuration has the point symmetry C_1 .
 The point group associated with its full space group is C_2 .


 Subroutine INISYM returns: Found  2 space group operations
 (whereof  1 operations are pure point group operations),
 and found     1 'primitive' translations


----------------------------------------------------------------------------------------

                                     Primitive cell                                     

  volume of cell :    2095.1583

  direct lattice vectors                    reciprocal lattice vectors
     8.000913230  0.000000000  0.000000000     0.124985732  0.000000000  0.000000000
     0.000000000  8.000913230  0.000000000     0.000000000  0.124985732  0.000000000
     0.000000000  0.000000000 32.729375000     0.000000000  0.000000000  0.030553593

  length of vectors
     8.000913230  8.000913230 32.729375000     0.124985732  0.124985732  0.030553593

  position of ions in fractional coordinates (direct lattice)
     0.000000000  0.000000000  0.478392880
     0.017318782  0.008254808  0.657205707
     0.250000000  0.250000000  0.391964410
     0.250008206  0.249098651  0.564620123
     0.250000000  0.000000000  0.348750170
     0.250000000  0.000000000  0.521607120
     0.249984491  0.072144225  0.708479847
     0.000000000  0.250000000  0.435178640
     0.999999595  0.250000286  0.608254078
     0.500000000  0.000000000  0.478392880
     0.482637027  0.008225070  0.657209024
     0.750000000  0.250000000  0.391964410
     0.749990423  0.250902344  0.564620164
     0.750000000  0.000000000  0.348750170
     0.750000000  0.000000000  0.521607120
     0.750006132  0.126193110  0.681641522
     0.500000000  0.250000000  0.435178640
     0.499999461  0.250001738  0.608252945
     0.000000000  0.500000000  0.478392880
     0.982682280  0.491745955  0.657205471
     0.250000000  0.750000000  0.391964410
     0.249996862  0.748879089  0.568029746
     0.250000000  0.500000000  0.348750170
     0.250000000  0.500000000  0.521607120
     0.249994495  0.373806779  0.681641726
     0.000000000  0.750000000  0.435178640
     0.000000642  0.750000072  0.614079608
     0.500000000  0.500000000  0.478392880
     0.517364134  0.491776029  0.657210072
     0.750000000  0.750000000  0.391964410
     0.750003608  0.751120696  0.568029689
     0.750000000  0.500000000  0.348750170
     0.750000000  0.500000000  0.521607120
     0.750018893  0.427855119  0.708480188
     0.500000000  0.750000000  0.435178640
     0.500000995  0.749998902  0.614081624
     0.405116640  0.000000000  0.321937180
     0.094883360  0.000000000  0.321937180
     0.905116640  0.000000000  0.321937180
     0.594883360  0.000000000  0.321937180
     0.405116640  0.500000000  0.321937180
     0.094883360  0.500000000  0.321937180
     0.905116640  0.500000000  0.321937180
     0.594883360  0.500000000  0.321937180

  ion indices of the primitive-cell ions
   primitive index   ion index
                 1           1
                 2           2
                 3           3
                 4           4
                 5           5
                 6           6
                 7           7
                 8           8
                 9           9
                10          10
                11          11
                12          12
                13          13
                14          14
                15          15
                16          16
                17          17
                18          18
                19          19
                20          20
                21          21
                22          22
                23          23
                24          24
                25          25
                26          26
                27          27
                28          28
                29          29
                30          30
                31          31
                32          32
                33          33
                34          34
                35          35
                36          36
                37          37
                38          38
                39          39
                40          40
                41          41
                42          42
                43          43
                44          44

----------------------------------------------------------------------------------------



 KPOINTS: K-Spacing Value to Generate K-Mesh: 0.04

Automatic generation of k-mesh.
 Grid dimensions read from file:
 generate k-points for:    4    4    1

 Generating k-lattice:

  Cartesian coordinates                     Fractional coordinates (reciprocal lattice)
     0.031246433  0.000000000  0.000000000     0.250000000  0.000000000  0.000000000
     0.000000000  0.031246433  0.000000000     0.000000000  0.250000000  0.000000000
     0.000000000  0.000000000  0.030553593     0.000000000  0.000000000  1.000000000

  Length of vectors
     0.031246433  0.031246433  0.030553593

  Shift w.r.t. Gamma in fractional coordinates (k-lattice)
     0.000000000  0.000000000  0.000000000

 
 Subroutine IBZKPT returns following result:
 ===========================================
 
 Found     10 irreducible k-points:
 
 Following reciprocal coordinates:
            Coordinates               Weight
  0.000000  0.000000  0.000000      1.000000
  0.250000  0.000000  0.000000      2.000000
  0.000000  0.250000  0.000000      2.000000
  0.500000  0.000000  0.000000      1.000000
  0.000000  0.500000  0.000000      1.000000
  0.250000  0.250000  0.000000      2.000000
 -0.250000  0.250000  0.000000      2.000000
  0.500000  0.250000  0.000000      2.000000
 -0.250000  0.500000  0.000000      2.000000
  0.500000  0.500000  0.000000      1.000000
 
 Following cartesian coordinates:
            Coordinates               Weight
  0.000000  0.000000  0.000000      1.000000
  0.031246  0.000000  0.000000      2.000000
  0.000000  0.031246  0.000000      2.000000
  0.062493  0.000000  0.000000      1.000000
  0.000000  0.062493  0.000000      1.000000
  0.031246  0.031246  0.000000      2.000000
 -0.031246  0.031246  0.000000      2.000000
  0.062493  0.031246  0.000000      2.000000
 -0.031246  0.062493  0.000000      2.000000
  0.062493  0.062493  0.000000      1.000000
 
 
 Subroutine IBZKPT_HF returns following result:
 ==============================================
 
 Found     16 k-points in 1st BZ
 the following     16 k-points will be used (e.g. in the exchange kernel)
 Following reciprocal coordinates:   # in IRBZ
  0.000000  0.000000  0.000000    0.06250000   1 t-inv F
  0.250000  0.000000  0.000000    0.06250000   2 t-inv F
  0.000000  0.250000  0.000000    0.06250000   3 t-inv F
  0.500000  0.000000  0.000000    0.06250000   4 t-inv F
  0.000000  0.500000  0.000000    0.06250000   5 t-inv F
  0.250000  0.250000  0.000000    0.06250000   6 t-inv F
 -0.250000  0.250000  0.000000    0.06250000   7 t-inv F
  0.500000  0.250000  0.000000    0.06250000   8 t-inv F
 -0.250000  0.500000  0.000000    0.06250000   9 t-inv F
  0.500000  0.500000  0.000000    0.06250000  10 t-inv F
 -0.250000 -0.000000  0.000000    0.06250000   2 t-inv F
 -0.000000 -0.250000  0.000000    0.06250000   3 t-inv F
 -0.250000 -0.250000  0.000000    0.06250000   6 t-inv F
  0.250000 -0.250000  0.000000    0.06250000   7 t-inv F
 -0.500000 -0.250000  0.000000    0.06250000   8 t-inv F
  0.250000 -0.500000  0.000000    0.06250000   9 t-inv F


--------------------------------------------------------------------------------------------------------




 Dimension of arrays:
   k-points           NKPTS =     10   k-points in BZ     NKDIM =     16   number of bands    NBANDS=    312
   number of dos      NEDOS =   3000   number of ions     NIONS =     44
   non local maximal  LDIM  =      6   non local SUM 2l+1 LMDIM =     18
   total plane-waves  NPLWV = 317520
   max r-space proj   IRMAX =      1   max aug-charges    IRDMAX=  40969
   dimension x,y,z NGX =    42 NGY =   42 NGZ =  180
   dimension x,y,z NGXF=    84 NGYF=   84 NGZF=  360
   support grid    NGXF=   168 NGYF=  168 NGZF=  720
   ions per type =              36   8
   NGX,Y,Z   is equivalent  to a cutoff of   8.73,  8.73,  9.14 a.u.
   NGXF,Y,Z  is equivalent  to a cutoff of  17.45, 17.45, 18.29 a.u.

 SYSTEM =  Ge dimer EXP HSE06 SCF                  
 POSCAR =  Converted by xsd2pos.py                 

 Startparameter for this run:
   NWRITE =      2    write-flag & timer
   PREC   = normal    normal or accurate (medium, high low for compatibility)
   ISTART =      1    job   : 0-new  1-cont  2-samecut
   ICHARG =      1    charge: 1-file 2-atom 10-const
   ISPIN  =      1    spin polarized calculation?
   LNONCOLLINEAR =      F non collinear calculations
   LSORBIT =      F    spin-orbit coupling
   INIWAV =      1    electr: 0-lowe 1-rand  2-diag
   LASPH  =      F    aspherical Exc in radial PAW
 Electronic Relaxation 1
   ENCUT  =  450.0 eV  33.07 Ry    5.75 a.u.  13.84 13.84 56.61*2*pi/ulx,y,z
   ENINI  =  450.0     initial cutoff
   ENAUG  =  531.4 eV  augmentation charge cutoff
   NELM   =    100;   NELMIN=  2; NELMDL=  0     # of ELM steps 
   EDIFF  = 0.1E-04   stopping-criterion for ELM
   LREAL  =      F    real-space projection
   NLSPLINE    = F    spline interpolate recip. space projectors
   LCOMPAT=      F    compatible to vasp.4.4
   GGA_COMPAT  = T    GGA compatible to vasp.4.4-vasp.4.6
   LMAXPAW     = -100 max onsite density
   LMAXMIX     =    2 max onsite mixed and CHGCAR
   VOSKOWN=      0    Vosko Wilk Nusair interpolation
   ROPT   =    0.00000   0.00000
 Ionic relaxation
   EDIFFG = 0.1E-03   stopping-criterion for IOM
   NSW    =      0    number of steps for IOM
   NBLOCK =      1;   KBLOCK =      1    inner block; outer block 
   IBRION =     -1    ionic relax: 0-MD 1-quasi-New 2-CG
   NFREE  =      0    steps in history (QN), initial steepest desc. (CG)
   ISIF   =      0    stress and relaxation
   IWAVPR =     10    prediction:  0-non 1-charg 2-wave 3-comb
   ISYM   =      3    0-nonsym 1-usesym 2-fastsym
   LCORR  =      T    Harris-Foulkes like correction to forces

   POTIM  = 0.5000    time-step for ionic-motion
   TEIN   =    0.0    initial temperature
   TEBEG  =    0.0;   TEEND  =   0.0 temperature during run
   SMASS  =  -3.00    Nose mass-parameter (am)
   estimated Nose-frequenzy (Omega)   =  0.10E-29 period in steps = 0.13E+47 mass=  -0.146E-26a.u.
   SCALEE = 1.0000    scale energy and forces
   NPACO  =    256;   APACO  = 10.0  distance and # of slots for P.C.
   PSTRESS=    0.0 pullay stress

  Mass of Ions in am
   POMASS =  72.61  1.00
  Ionic Valenz
   ZVAL   =  14.00  1.00
  Atomic Wigner-Seitz radii
   RWIGS  =  -1.00 -1.00
  virtual crystal weights 
   VCA    =   1.00  1.00
   NELECT =     512.0000    total number of electrons
   NUPDOWN=      -1.0000    fix difference up-down

 DOS related values:
   EMIN   =  10.00;   EMAX   =-10.00  energy-range for DOS
   EFERMI =   0.00
   ISMEAR =     0;   SIGMA  =   0.05  broadening in eV -4-tet -1-fermi 0-gaus

 Electronic relaxation 2 (details)
   IALGO  =     53    algorithm
   LDIAG  =      T    sub-space diagonalisation (order eigenvalues)
   LSUBROT=      F    optimize rotation matrix (better conditioning)
   TURBO    =      0    0=normal 1=particle mesh
   IRESTART =      0    0=no restart 2=restart with 2 vectors
   NREBOOT  =      0    no. of reboots
   NMIN     =      0    reboot dimension
   EREF     =   0.00    reference energy to select bands
   IMIX   =      4    mixing-type and parameters
     AMIX     =   0.20;   BMIX     =  0.00
     AMIX_MAG =   0.80;   BMIX_MAG =  0.00
     AMIN     =   0.01
     WC   =   100.;   INIMIX=   1;  MIXPRE=   1;  MAXMIX= -45

 Intra band minimization:
   WEIMIN = 0.0000     energy-eigenvalue tresh-hold
   EBREAK =  0.80E-08  absolut break condition
   DEPER  =   0.30     relativ break condition  

   TIME   =   0.20     timestep for ELM

  volume/ion in A,a.u.               =      47.62       321.34
  Fermi-wavevector in a.u.,A,eV,Ry     =   1.023511  1.934155 14.253122  1.047575
  Thomas-Fermi vector in A             =   2.157248

 Write flags
   LWAVE        =      T    write WAVECAR
   LDOWNSAMPLE  =      F    k-point downsampling of WAVECAR
   LCHARG       =      T    write CHGCAR
   LVTOT        =      F    write LOCPOT, total local potential
   LVHAR        =      F    write LOCPOT, Hartree potential only
   LELF         =      F    write electronic localiz. function (ELF)
   LORBIT       =     11    0 simple, 1 ext, 2 COOP (PROOUT), +10 PAW based schemes


 Dipole corrections
   LMONO  =      F    monopole corrections only (constant potential shift)
   LDIPOL =      T    correct potential (dipole corrections)
   IDIPOL =      3    1-x, 2-y, 3-z, 4-all directions 
   EPSILON=  1.0000000 bulk dielectric constant

 Exchange correlation treatment:
   GGA     =    PE    GGA type
   LEXCH   =     8    internal setting for exchange type
   LIBXC   =     F    Libxc                    
   VOSKOWN =     0    Vosko Wilk Nusair interpolation
   EXXOEP  =     0    0=HF, 1=EXX-LHF (local Hartree Fock) 2=EXX OEP
   LHFCALC =     T    Hartree Fock is set to
   LSYMGRAD=     F    symmetrize gradient (conserves proper symmetry)
   PRECFOCK=normal    Normal, Fast or Accurate (Low or Medium for compatibility)
   LRHFCALC=     F    long range Hartree Fock
   LRSCOR  =     F    long range correlation only (use DFT for short range part)
   LTHOMAS =     F    Thomas Fermi screening in HF
   LMODELHF=     F    short range full HF, long range fraction AEXX
   FOCKCORR=     1    mode to apply convergence corrections
   LFOCKACE=     T    use Adeptively-Compressed-Exchange operator
   ENCUT4O =  -1.0   cutoff for four orbital integrals eV
   LMAXFOCK=     4    L truncation for augmentation on plane wave grid
   LMAXFOCKAE=  -1    L truncation for all-electron charge restoration on plane wave grid
   NMAXFOCKAE=   1    number of basis functions for all-electron charge restoration
   LFOCKAEDFT=     F  apply the AE augmentation even for DFT
   NKREDX  =     1    reduce k-point grid by
   NKREDY  =     1    reduce k-point grid by
   NKREDZ  =     1    reduce k-point grid by
   SHIFTRED=     F    shift reduced grid of Gamma
   HFKIDENT=     F    idential grid for each k-point
   ODDONLY =     F    use only odd q-grid points
   EVENONLY=     F    use only even q-grid points
   HFALPHA =   -1.0000 decay constant for conv. correction
   MCALPHA =    0.0000 extent of test-charge in conv. correction in multipole expansion
   AEXX    =    0.2500 exact exchange contribution
   HFSCREEN=    0.2000 screening length (either q_TF or 0.3 A-1)
   HFSCREENC=   0.2000 screening length for correlation (either q_TF or 0.3 A-1)
   HFRCUT  =   -1.0000 spherical cutoff for potential kernel
   ALDAX   =    0.7500 LDA exchange part
   AGGAX   =    0.7500 GGA exchange part
   ALDAC   =    1.0000 LDA correlation
   AGGAC   =    1.0000 GGA correlation
   ENCUTFOCK=  -1.0 apply spherical cutoff to Coloumb kernel
   NBANDSGWLOW=     1    first orbital included in HF term
   NBLOCK_FOCK=    64    blocking factor in FOCK_ACC

 Linear response parameters
   LEPSILON=     F    determine dielectric tensor
   LRPA    =     F    only Hartree local field effects (RPA)
   LNABLA  =     F    use nabla operator in PAW spheres
   LVEL    =     F    velocity operator in full k-point grid
   CSHIFT  =0.1000    complex shift for real part using Kramers Kronig
   OMEGAMAX=  -1.0    maximum frequency
   DEG_THRESHOLD= 0.2000000E-02 threshold for treating states as degnerate
   RTIME   =   -0.100 relaxation time in fs
  (WPLASMAI=    0.000 imaginary part of plasma frequency in eV, 0.658/RTIME)
   DFIELD  = 0.0000000 0.0000000 0.0000000 field for delta impulse in time

  Optional k-point grid parameters
   LKPOINTS_OPT  =     F    use optional k-point grid
   KPOINTS_OPT_MODE=     1    mode for optional k-point grid

 Orbital magnetization related:
   ORBITALMAG=     F  switch on orbital magnetization
   LCHIMAG   =     F  perturbation theory with respect to B field
   DQ        =  0.001000  dq finite difference perturbation B field
   LLRAUG    =     F  two centre corrections for induced B field



--------------------------------------------------------------------------------------------------------


 Static calculation
 charge density and potential will be updated during run
 non-spin polarized calculation
 Conjugate gradient for all bands (Freysoldt, et al. PRB 79, 241103 (2009))
 perform sub-space diagonalisation
    before iterative eigenvector-optimisation
 modified Broyden-mixing scheme, WC =      100.0
 initial mixing is a Kerker type mixing with AMIX =  0.2000 and BMIX =      0.0001
 Hartree-type preconditioning will be used
 using additional bands           56
 reciprocal scheme for non local part
 use partial core corrections
 no Harris-corrections to forces 
 use gradient corrections 
 use of overlap-Matrix (Vanderbilt PP)
 Gauss-broadening in eV      SIGMA  =   0.05


--------------------------------------------------------------------------------------------------------


  energy-cutoff  :      450.00
  volume of cell :     2095.16
      direct lattice vectors                 reciprocal lattice vectors
     8.000913230  0.000000000  0.000000000     0.124985732  0.000000000  0.000000000
     0.000000000  8.000913230  0.000000000     0.000000000  0.124985732  0.000000000
     0.000000000  0.000000000 32.729375000     0.000000000  0.000000000  0.030553593

  length of vectors
     8.000913230  8.000913230 32.729375000     0.124985732  0.124985732  0.030553593



 old parameters found on file WAVECAR:
  energy-cutoff  :      450.00
  volume of cell :     2095.16
      direct lattice vectors                 reciprocal lattice vectors
     8.000913230  0.000000000  0.000000000     0.124985732  0.000000000  0.000000000
     0.000000000  8.000913230  0.000000000     0.000000000  0.124985732  0.000000000
     0.000000000  0.000000000 32.729375000     0.000000000  0.000000000  0.030553593

  length of vectors


 k-points in units of 2pi/SCALE and weight: K-Spacing Value to Generate K-Mesh: 0.04
   0.00000000  0.00000000  0.00000000       0.062
   0.03124643  0.00000000  0.00000000       0.125
   0.00000000  0.03124643  0.00000000       0.125
   0.06249287  0.00000000  0.00000000       0.062
   0.00000000  0.06249287  0.00000000       0.062
   0.03124643  0.03124643  0.00000000       0.125
  -0.03124643  0.03124643  0.00000000       0.125
   0.06249287  0.03124643  0.00000000       0.125
  -0.03124643  0.06249287  0.00000000       0.125
   0.06249287  0.06249287  0.00000000       0.062

 k-points in reciprocal lattice and weights: K-Spacing Value to Generate K-Mesh: 0.04
   0.00000000  0.00000000  0.00000000       0.062
   0.25000000  0.00000000  0.00000000       0.125
   0.00000000  0.25000000  0.00000000       0.125
   0.50000000  0.00000000  0.00000000       0.062
   0.00000000  0.50000000  0.00000000       0.062
   0.25000000  0.25000000  0.00000000       0.125
  -0.25000000  0.25000000  0.00000000       0.125
   0.50000000  0.25000000  0.00000000       0.125
  -0.25000000  0.50000000  0.00000000       0.125
   0.50000000  0.50000000  0.00000000       0.062

 position of ions in fractional coordinates (direct lattice) 
   0.00000000  0.00000000  0.47839288
   0.01731878  0.00825481  0.65720571
   0.25000000  0.25000000  0.39196441
   0.25000821  0.24909865  0.56462012
   0.25000000  0.00000000  0.34875017
   0.25000000  0.00000000  0.52160712
   0.24998449  0.07214422  0.70847985
   0.00000000  0.25000000  0.43517864
   0.99999959  0.25000029  0.60825408
   0.50000000  0.00000000  0.47839288
   0.48263703  0.00822507  0.65720902
   0.75000000  0.25000000  0.39196441
   0.74999042  0.25090234  0.56462016
   0.75000000  0.00000000  0.34875017
   0.75000000  0.00000000  0.52160712
   0.75000613  0.12619311  0.68164152
   0.50000000  0.25000000  0.43517864
   0.49999946  0.25000174  0.60825295
   0.00000000  0.50000000  0.47839288
   0.98268228  0.49174596  0.65720547
   0.25000000  0.75000000  0.39196441
   0.24999686  0.74887909  0.56802975
   0.25000000  0.50000000  0.34875017
   0.25000000  0.50000000  0.52160712
   0.24999450  0.37380678  0.68164173
   0.00000000  0.75000000  0.43517864
   0.00000064  0.75000007  0.61407961
   0.50000000  0.50000000  0.47839288
   0.51736413  0.49177603  0.65721007
   0.75000000  0.75000000  0.39196441
   0.75000361  0.75112070  0.56802969
   0.75000000  0.50000000  0.34875017
   0.75000000  0.50000000  0.52160712
   0.75001889  0.42785512  0.70848019
   0.50000000  0.75000000  0.43517864
   0.50000100  0.74999890  0.61408162
   0.40511664  0.00000000  0.32193718
   0.09488336  0.00000000  0.32193718
   0.90511664  0.00000000  0.32193718
   0.59488336  0.00000000  0.32193718
   0.40511664  0.50000000  0.32193718
   0.09488336  0.50000000  0.32193718
   0.90511664  0.50000000  0.32193718
   0.59488336  0.50000000  0.32193718

 position of ions in cartesian coordinates  (Angst):
   0.00000000  0.00000000 15.65749997
   0.13856607  0.06604600 21.50993202
   2.00022831  2.00022831 12.82875016
   2.00029397  1.99301669 18.47966373
   2.00022831  0.00000000 11.41437510
   2.00022831  0.00000000 17.07187503
   2.00010422  0.57721968 23.18810261
   0.00000000  2.00022831 14.24312490
   8.00090999  2.00023059 19.90777582
   4.00045662  0.00000000 15.65749997
   3.86153698  0.06580807 21.51004059
   6.00068492  2.00022831 12.82875016
   6.00060830  2.00744788 18.47966509
   6.00068492  0.00000000 11.41437510
   6.00068492  0.00000000 17.07187503
   6.00073398  1.00966012 22.30970098
   4.00045662  2.00022831 14.24312490
   4.00045230  2.00024221 19.90773874
   0.00000000  4.00045662 15.65749997
   7.86235566  3.93441672 21.50992432
   2.00022831  6.00068492 12.82875016
   2.00020320  5.99171661 18.59125856
   2.00022831  4.00045662 11.41437510
   2.00022831  4.00045662 17.07187503
   2.00018427  2.99079560 22.30970767
   0.00000000  6.00068492 14.24312490
   0.00000514  6.00068550 20.09844175
   4.00045662  4.00045662 15.65749997
   4.13938555  3.93465734 21.51007489
   6.00068492  6.00068492 12.82875016
   6.00071379  6.00965151 18.59125670
   6.00068492  4.00045662 11.41437510
   6.00068492  4.00045662 17.07187503
   6.00083608  3.42323168 23.18811374
   4.00045662  6.00068492 14.24312490
   4.00046458  6.00067614 20.09850774
   3.24130308  0.00000000 10.53680269
   0.75915353  0.00000000 10.53680269
   7.24175970  0.00000000 10.53680269
   4.75961015  0.00000000 10.53680269
   3.24130308  4.00045662 10.53680269
   0.75915353  4.00045662 10.53680269
   7.24175970  4.00045662 10.53680269
   4.75961015  4.00045662 10.53680269



--------------------------------------------------------------------------------------------------------


 k-point   1 :   0.0000 0.0000 0.0000  plane waves:   45449
 k-point   2 :   0.2500 0.0000 0.0000  plane waves:   45414
 k-point   3 :   0.0000 0.2500 0.0000  plane waves:   45414
 k-point   4 :   0.5000 0.0000 0.0000  plane waves:   45320
 k-point   5 :   0.0000 0.5000 0.0000  plane waves:   45320
 k-point   6 :   0.2500 0.2500 0.0000  plane waves:   45400
 k-point   7 :  -0.2500 0.2500 0.0000  plane waves:   45400
 k-point   8 :   0.5000 0.2500 0.0000  plane waves:   45462
 k-point   9 :  -0.2500 0.5000 0.0000  plane waves:   45462
 k-point  10 :   0.5000 0.5000 0.0000  plane waves:   45472

 maximum and minimum number of plane-waves per node :      9142     9025

 maximum number of plane-waves:     45472
 maximum index in each direction: 
   IXMAX=   14   IYMAX=   13   IZMAX=   56
   IXMIN=  -14   IYMIN=  -14   IZMIN=  -56


 parallel 3D FFT for wavefunctions:
    minimum data exchange during FFTs selected (reduces bandwidth)
 parallel 3D FFT for charge:
    minimum data exchange during FFTs selected (reduces bandwidth)


 Radii for the augmentation spheres in the non-local exchange
 for species   1 augmentation radius   1.239 (default was   0.991)
       energy cutoff for augmentation   1800.0
 for species   2 augmentation radius   0.650 (default was   0.520)
       energy cutoff for augmentation   1800.0

 real space projection operators:
  total allocation   :       8559.77 KBytes
  max/ min on nodes  :       1878.00       1609.56

 Maximum index for augmentation-charges in exchange          333
 HFRCUT set to (new)   20.002428906184740     
  SETUP_FOCK is finished

 total amount of memory used by VASP MPI-rank0   323502. kBytes
=======================================================================

   base      :      30000. kBytes
   nonl-proj :      32793. kBytes
   fftplans  :      17272. kBytes
   grid      :       7828. kBytes
   one-center:        139. kBytes
   HF        :        129. kBytes
   nonlr-proj:       3213. kBytes
   wavefun   :     232128. kBytes

     INWAV:  cpu time      3.1791: real time      3.1793
 Broyden mixing: mesh for mixing (old mesh)
   NGX = 27   NGY = 27   NGZ =113
  (NGX  = 84   NGY  = 84   NGZ  =360)
  gives a total of  82377 points

 initial charge density was supplied:
 number of electron     511.9999920 magnetization 
 charge density for first step will be calculated from the start-wavefunctions


--------------------------------------------------------------------------------------------------------


 Maximum index for augmentation-charges         2070 (set IRDMAX)


--------------------------------------------------------------------------------------------------------


 initial charge from wavefunction
 First call to EWALD:  gamma=   0.139
 Maximum number of real-space cells 4x 4x 1
 Maximum number of reciprocal cells 2x 2x 6

    FEWALD:  cpu time      0.0032: real time      0.0032


--------------------------------------- Iteration      1(   1)  ---------------------------------------


    POTLOK:  cpu time      0.1396: real time      0.1396
    SETDIJ:  cpu time      0.2158: real time      0.2159
    TRIAL :  cpu time  22337.5728: real time  22338.7438
    CORREC:  cpu time      0.0040: real time      0.0040
    CHARGE:  cpu time      1.6125: real time      1.6126
    --------------------------------------------
      LOOP:  cpu time  22339.6656: real time  22340.8368

 eigenvalue-minimisations  :     0
 total energy-change (2. order) :-0.2176426E+03  (-0.5863207E-03)
 number of electron     511.9999920 magnetization 
 augmentation part      305.7850304 magnetization 

 DIPCOR: dipole corrections for dipol
 direction  3 min pos   364,
 dipolmoment           0.000000      0.000000      0.136183 electrons x Angstroem
 Tr[quadrupol]     -5973.552191

 energy correction for charged system         0.000000 eV
 dipol+quadrupol energy correction           -0.000801 eV
 added-field ion interaction         -2.242529 eV  (added to PSCEN)


 Free energy of the ion-electron system (eV)
  ---------------------------------------------------
  alpha Z        PSCENC =       923.04637771
  Ewald energy   TEWEN  =    319641.18554350
  -Hartree energ DENC   =   -391259.50080614
  -exchange      EXHF   =      1387.07176685
  -V(xc)+E(xc)   XCENC  =      2015.26281071
  PAW double counting   =     85932.63194441  -101019.07293625
  entropy T*S    EENTRO =        -0.00000000
  eigenvalues    EBANDS =    -11338.48095876
  atomic energy  EATOM  =     93500.21365650
  ---------------------------------------------------
  free energy    TOTEN  =      -217.64260147 eV

  energy without entropy =     -217.64260147  energy(sigma->0) =     -217.64260147
  exchange ACFDT corr.  =        -0.00000000  see jH, gK, PRB 81, 115126


--------------------------------------------------------------------------------------------------------




--------------------------------------- Iteration      1(   2)  ---------------------------------------


    POTLOK:  cpu time      0.1306: real time      0.1306
    SETDIJ:  cpu time      0.2050: real time      0.2050
    TRIAL :  cpu time  22287.9734: real time  22289.1263
    CORREC:  cpu time      0.0031: real time      0.0031
    CHARGE:  cpu time      1.6250: real time      1.6251
    --------------------------------------------
      LOOP:  cpu time  22289.9397: real time  22291.0928

 eigenvalue-minimisations  :     0
 total energy-change (2. order) :-0.2909819E-03  (-0.2081962E-04)
 number of electron     511.9999920 magnetization 
 augmentation part      305.7850886 magnetization 

 DIPCOR: dipole corrections for dipol
 direction  3 min pos   364,
 dipolmoment           0.000000      0.000000      0.086424 electrons x Angstroem
 Tr[quadrupol]     -5973.628569

 energy correction for charged system         0.000000 eV
 dipol+quadrupol energy correction           -0.000323 eV
 added-field ion interaction         -1.423146 eV  (added to PSCEN)


 Free energy of the ion-electron system (eV)
  ---------------------------------------------------
  alpha Z        PSCENC =       923.86623887
  Ewald energy   TEWEN  =    319641.18554350
  -Hartree energ DENC   =   -391260.73729811
  -exchange      EXHF   =      1387.07242356
  -V(xc)+E(xc)   XCENC  =      2015.26295188
  PAW double counting   =     85932.70619598  -101019.12682185
  entropy T*S    EENTRO =        -0.00000000
  eigenvalues    EBANDS =    -11338.08578278
  atomic energy  EATOM  =     93500.21365650
  ---------------------------------------------------
  free energy    TOTEN  =      -217.64289245 eV

  energy without entropy =     -217.64289245  energy(sigma->0) =     -217.64289245
  exchange ACFDT corr.  =        -0.00000000  see jH, gK, PRB 81, 115126


--------------------------------------------------------------------------------------------------------




--------------------------------------- Iteration      1(   3)  ---------------------------------------


    POTLOK:  cpu time      0.1344: real time      0.1344
    SETDIJ:  cpu time      0.2088: real time      0.2088
    TRIAL :  cpu time  22306.9866: real time  22308.1102
    CORREC:  cpu time      0.0040: real time      0.0040
    CHARGE:  cpu time      1.6341: real time      1.6342
    --------------------------------------------
      LOOP:  cpu time  22308.9703: real time  22310.0940

 eigenvalue-minimisations  :     0
 total energy-change (2. order) : 0.5146159E-04  (-0.9580241E-04)
 number of electron     511.9999920 magnetization 
 augmentation part      305.7853326 magnetization 

 DIPCOR: dipole corrections for dipol
 direction  3 min pos   364,
 dipolmoment           0.000000      0.000000      0.060974 electrons x Angstroem
 Tr[quadrupol]     -5973.647543

 energy correction for charged system         0.000000 eV
 dipol+quadrupol energy correction           -0.000161 eV
 added-field ion interaction         -1.004053 eV  (added to PSCEN)


 Free energy of the ion-electron system (eV)
  ---------------------------------------------------
  alpha Z        PSCENC =       924.28549425
  Ewald energy   TEWEN  =    319641.18554350
  -Hartree energ DENC   =   -391260.69684905
  -exchange      EXHF   =      1387.07286891
  -V(xc)+E(xc)   XCENC  =      2015.26291490
  PAW double counting   =     85932.83687419  -101019.24731868
  entropy T*S    EENTRO =        -0.00000000
  eigenvalues    EBANDS =    -11338.55602551
  atomic energy  EATOM  =     93500.21365650
  ---------------------------------------------------
  free energy    TOTEN  =      -217.64284099 eV

  energy without entropy =     -217.64284099  energy(sigma->0) =     -217.64284099
  exchange ACFDT corr.  =        -0.00000000  see jH, gK, PRB 81, 115126


--------------------------------------------------------------------------------------------------------




--------------------------------------- Iteration      1(   4)  ---------------------------------------


    POTLOK:  cpu time      0.1316: real time      0.1316
    SETDIJ:  cpu time      0.2097: real time      0.2097
    TRIAL :  cpu time  22315.1259: real time  22316.3693
    CORREC:  cpu time      0.0080: real time      0.0080
    CHARGE:  cpu time      1.6297: real time      1.6297
    --------------------------------------------
      LOOP:  cpu time  22317.1079: real time  22318.3514

 eigenvalue-minimisations  :     0
 total energy-change (2. order) :-0.6309870E-04  (-0.4654827E-04)
 number of electron     511.9999920 magnetization 
 augmentation part      305.7855530 magnetization 

 DIPCOR: dipole corrections for dipol
 direction  3 min pos   364,
 dipolmoment           0.000000      0.000000      0.071845 electrons x Angstroem
 Tr[quadrupol]     -5973.606473

 energy correction for charged system         0.000000 eV
 dipol+quadrupol energy correction           -0.000223 eV
 added-field ion interaction         -1.183065 eV  (added to PSCEN)


 Free energy of the ion-electron system (eV)
  ---------------------------------------------------
  alpha Z        PSCENC =       924.10641944
  Ewald energy   TEWEN  =    319641.18554350
  -Hartree energ DENC   =   -391259.60264528
  -exchange      EXHF   =      1387.07305839
  -V(xc)+E(xc)   XCENC  =      2015.26283740
  PAW double counting   =     85933.04423986  -101019.46262301
  entropy T*S    EENTRO =        -0.00000000
  eigenvalues    EBANDS =    -11339.46339088
  atomic energy  EATOM  =     93500.21365650
  ---------------------------------------------------
  free energy    TOTEN  =      -217.64290409 eV

  energy without entropy =     -217.64290409  energy(sigma->0) =     -217.64290409
  exchange ACFDT corr.  =        -0.00000000  see jH, gK, PRB 81, 115126


--------------------------------------------------------------------------------------------------------




--------------------------------------- Iteration      1(   5)  ---------------------------------------


    POTLOK:  cpu time      0.1313: real time      0.1313
    SETDIJ:  cpu time      0.2094: real time      0.2094
    TRIAL :  cpu time  22318.8888: real time  22320.5602
    CORREC:  cpu time      0.0023: real time      0.0023
    EDDIAG:  cpu time  22339.6945: real time  22341.1275
    CHARGE:  cpu time      1.6509: real time      1.6511
    --------------------------------------------
      LOOP:  cpu time  44660.5798: real time  44663.6845

 eigenvalue-minimisations  :     0
 total energy-change (2. order) :-0.7207530E-05  (-0.6119650E-05)
 number of electron     511.9999920 magnetization 
 augmentation part      305.7856407 magnetization 

 DIPCOR: dipole corrections for dipol
 direction  3 min pos   364,
 dipolmoment           0.000000      0.000000      0.087873 electrons x Angstroem
 Tr[quadrupol]     -5973.577572

 energy correction for charged system         0.000000 eV
 dipol+quadrupol energy correction           -0.000333 eV
 added-field ion interaction         -1.447012 eV  (added to PSCEN)


 Free energy of the ion-electron system (eV)
  ---------------------------------------------------
  alpha Z        PSCENC =       923.84236235
  Ewald energy   TEWEN  =    319641.18554350
  -Hartree energ DENC   =   -391259.04261254
  -exchange      EXHF   =      1387.07384674
  -V(xc)+E(xc)   XCENC  =      2015.26292073
  PAW double counting   =     85933.32856613  -101019.75741357
  entropy T*S    EENTRO =        -0.00000000
  eigenvalues    EBANDS =    -11339.74928685
  atomic energy  EATOM  =     93500.21365650
  ---------------------------------------------------
  free energy    TOTEN  =      -217.64291130 eV

  energy without entropy =     -217.64291130  energy(sigma->0) =     -217.64291130
  exchange ACFDT corr.  =        -0.00000000  see jH, gK, PRB 81, 115126


--------------------------------------------------------------------------------------------------------


  average scaling for gradient   0.9595


 average (electrostatic) potential at core
  the test charge radii are     0.9911  0.5201
  (the norm of the test charge is              1.0000)
       1 -72.8112       2 -72.6490       3 -72.7598       4 -72.6995       5 -72.5843
       6 -72.7748       7 -72.3767       8 -72.8335       9 -72.6813      10 -72.8112
      11 -72.6491      12 -72.7598      13 -72.6995      14 -72.5849      15 -72.7838
      16 -73.1715      17 -72.8335      18 -72.6812      19 -72.8112      20 -72.6491
      21 -72.7318      22 -72.7869      23 -72.5849      24 -72.7839      25 -73.1716
      26 -72.7929      27 -72.8494      28 -72.8112      29 -72.6492      30 -72.7318
      31 -72.7870      32 -72.5843      33 -72.7749      34 -72.3768      35 -72.7929
      36 -72.8494      37 -33.8526      38 -33.8526      39 -33.8526      40 -33.8526
      41 -33.8526      42 -33.8526      43 -33.8526      44 -33.8526



 E-fermi :  -0.8918     XC(G=0):  -3.7615     alpha+bet : -4.1598

 Fermi energy:        -0.8917630739

 k-point     1 :       0.0000    0.0000    0.0000
  band No.  band energies     occupation 
      1     -29.1541      2.00000
      2     -29.1537      2.00000
      3     -29.0925      2.00000
      4     -29.0924      2.00000
      5     -29.0660      2.00000
      6     -29.0656      2.00000
      7     -28.9291      2.00000
      8     -28.9264      2.00000
      9     -28.9197      2.00000
     10     -28.9196      2.00000
     11     -28.8506      2.00000
     12     -28.8474      2.00000
     13     -28.8397      2.00000
     14     -28.8331      2.00000
     15     -28.8287      2.00000
     16     -28.8283      2.00000
     17     -28.8254      2.00000
     18     -28.8232      2.00000
     19     -28.8216      2.00000
     20     -28.8195      2.00000
     21     -28.8193      2.00000
     22     -28.8188      2.00000
     23     -28.8093      2.00000
     24     -28.8057      2.00000
     25     -28.7996      2.00000
     26     -28.7968      2.00000
     27     -28.7955      2.00000
     28     -28.7891      2.00000
     29     -28.7874      2.00000
     30     -28.7848      2.00000
     31     -28.7778      2.00000
     32     -28.7767      2.00000
     33     -28.7734      2.00000
     34     -28.7722      2.00000
     35     -28.7580      2.00000
     36     -28.7551      2.00000
     37     -28.7505      2.00000
     38     -28.7495      2.00000
     39     -28.7452      2.00000
     40     -28.7382      2.00000
     41     -28.7364      2.00000
     42     -28.7340      2.00000
     43     -28.7322      2.00000
     44     -28.7268      2.00000
     45     -28.7205      2.00000
     46     -28.7201      2.00000
     47     -28.7195      2.00000
     48     -28.7183      2.00000
     49     -28.7153      2.00000
     50     -28.7129      2.00000
     51     -28.7110      2.00000
     52     -28.7106      2.00000
     53     -28.7084      2.00000
     54     -28.7041      2.00000
     55     -28.7019      2.00000
     56     -28.6963      2.00000
     57     -28.6909      2.00000
     58     -28.6895      2.00000
     59     -28.6886      2.00000
     60     -28.6860      2.00000
     61     -28.6855      2.00000
     62     -28.6837      2.00000
     63     -28.6743      2.00000
     64     -28.6728      2.00000
     65     -28.6726      2.00000
     66     -28.6725      2.00000
     67     -28.6565      2.00000
     68     -28.6547      2.00000
     69     -28.6493      2.00000
     70     -28.6478      2.00000
     71     -28.6432      2.00000
     72     -28.6425      2.00000
     73     -28.6369      2.00000
     74     -28.6355      2.00000
     75     -28.6317      2.00000
     76     -28.6313      2.00000
     77     -28.6246      2.00000
     78     -28.6202      2.00000
     79     -28.6188      2.00000
     80     -28.6141      2.00000
     81     -28.6123      2.00000
     82     -28.6087      2.00000
     83     -28.6074      2.00000
     84     -28.6059      2.00000
     85     -28.6058      2.00000
     86     -28.5982      2.00000
     87     -28.5951      2.00000
     88     -28.5942      2.00000
     89     -28.5931      2.00000
     90     -28.5920      2.00000
     91     -28.5866      2.00000
     92     -28.5835      2.00000
     93     -28.5834      2.00000
     94     -28.5824      2.00000
     95     -28.5758      2.00000
     96     -28.5741      2.00000
     97     -28.5739      2.00000
     98     -28.5703      2.00000
     99     -28.5671      2.00000
    100     -28.5633      2.00000
    101     -28.5593      2.00000
    102     -28.5579      2.00000
    103     -28.5554      2.00000
    104     -28.5533      2.00000
    105     -28.5512      2.00000
    106     -28.5497      2.00000
    107     -28.5461      2.00000
    108     -28.5441      2.00000
    109     -28.5432      2.00000
    110     -28.5355      2.00000
    111     -28.5315      2.00000
    112     -28.5315      2.00000
    113     -28.5307      2.00000
    114     -28.5209      2.00000
    115     -28.5188      2.00000
    116     -28.5186      2.00000
    117     -28.5170      2.00000
    118     -28.5157      2.00000
    119     -28.5118      2.00000
    120     -28.5118      2.00000
    121     -28.5093      2.00000
    122     -28.5079      2.00000
    123     -28.5054      2.00000
    124     -28.5042      2.00000
    125     -28.5019      2.00000
    126     -28.5018      2.00000
    127     -28.4990      2.00000
    128     -28.4963      2.00000
    129     -28.4962      2.00000
    130     -28.4922      2.00000
    131     -28.4914      2.00000
    132     -28.4879      2.00000
    133     -28.4876      2.00000
    134     -28.4840      2.00000
    135     -28.4783      2.00000
    136     -28.4782      2.00000
    137     -28.4747      2.00000
    138     -28.4723      2.00000
    139     -28.4693      2.00000
    140     -28.4684      2.00000
    141     -28.4668      2.00000
    142     -28.4667      2.00000
    143     -28.4657      2.00000
    144     -28.4618      2.00000
    145     -28.4599      2.00000
    146     -28.4558      2.00000
    147     -28.4483      2.00000
    148     -28.4481      2.00000
    149     -28.4478      2.00000
    150     -28.4353      2.00000
    151     -28.4320      2.00000
    152     -28.4300      2.00000
    153     -28.4267      2.00000
    154     -28.4222      2.00000
    155     -28.4198      2.00000
    156     -28.4189      2.00000
    157     -28.4188      2.00000
    158     -28.4188      2.00000
    159     -28.4138      2.00000
    160     -28.4128      2.00000
    161     -28.4099      2.00000
    162     -28.4065      2.00000
    163     -28.4060      2.00000
    164     -28.4055      2.00000
    165     -28.4044      2.00000
    166     -28.3961      2.00000
    167     -28.3924      2.00000
    168     -28.3873      2.00000
    169     -28.3849      2.00000
    170     -28.3827      2.00000
    171     -28.2269      2.00000
    172     -28.2244      2.00000
    173     -28.2240      2.00000
    174     -28.2239      2.00000
    175     -28.2014      2.00000
    176     -28.2009      2.00000
    177     -28.1881      2.00000
    178     -28.1875      2.00000
    179     -28.1873      2.00000
    180     -28.1867      2.00000
    181     -14.6307      2.00000
    182     -14.1616      2.00000
    183     -13.4415      2.00000
    184     -12.7854      2.00000
    185     -12.6906      2.00000
    186     -12.6625      2.00000
    187     -12.6511      2.00000
    188     -12.4943      2.00000
    189     -12.4591      2.00000
    190     -12.3747      2.00000
    191     -12.2965      2.00000
    192     -12.0578      2.00000
    193     -11.7523      2.00000
    194     -11.1162      2.00000
    195     -10.9785      2.00000
    196     -10.9298      2.00000
    197     -10.4964      2.00000
    198     -10.4962      2.00000
    199     -10.4371      2.00000
    200     -10.3930      2.00000
    201     -10.2617      2.00000
    202     -10.2603      2.00000
    203     -10.0212      2.00000
    204      -9.4266      2.00000
    205      -9.0006      2.00000
    206      -8.9760      2.00000
    207      -8.8799      2.00000
    208      -8.5744      2.00000
    209      -8.5716      2.00000
    210      -8.3325      2.00000
    211      -8.3022      2.00000
    212      -8.0989      2.00000
    213      -7.7410      2.00000
    214      -7.7235      2.00000
    215      -7.4971      2.00000
    216      -6.8089      2.00000
    217      -5.8552      2.00000
    218      -5.7759      2.00000
    219      -4.8530      2.00000
    220      -4.8213      2.00000
    221      -4.7893      2.00000
    222      -4.6887      2.00000
    223      -4.6833      2.00000
    224      -4.5155      2.00000
    225      -4.5039      2.00000
    226      -4.3650      2.00000
    227      -4.3414      2.00000
    228      -4.3172      2.00000
    229      -4.1577      2.00000
    230      -3.8853      2.00000
    231      -3.8384      2.00000
    232      -3.8371      2.00000
    233      -3.7694      2.00000
    234      -3.7619      2.00000
    235      -3.7046      2.00000
    236      -3.5541      2.00000
    237      -3.2743      2.00000
    238      -3.2254      2.00000
    239      -3.1458      2.00000
    240      -2.9847      2.00000
    241      -2.7042      2.00000
    242      -2.4179      2.00000
    243      -2.4100      2.00000
    244      -2.3826      2.00000
    245      -2.3770      2.00000
    246      -2.2917      2.00000
    247      -2.2833      2.00000
    248      -2.2488      2.00000
    249      -2.1913      2.00000
    250      -2.1545      2.00000
    251      -2.1468      2.00000
    252      -1.8095      2.00000
    253      -1.6457      2.00000
    254      -1.4951      2.00000
    255      -1.2878      2.00000
    256      -1.1743      2.00000
    257      -0.5688      0.00000
    258      -0.2310      0.00000
    259       0.0774      0.00000
    260       0.4285      0.00000
    261       0.5719      0.00000
    262       0.6534      0.00000
    263       0.6782      0.00000
    264       0.7312      0.00000
    265       0.8193      0.00000
    266       0.9204      0.00000
    267       0.9870      0.00000
    268       1.0219      0.00000
    269       1.2389      0.00000
    270       1.3476      0.00000
    271       1.4169      0.00000
    272       1.5136      0.00000
    273       1.6726      0.00000
    274       1.7148      0.00000
    275       1.8554      0.00000
    276       1.8834      0.00000
    277       2.0423      0.00000
    278       2.0977      0.00000
    279       2.2899      0.00000
    280       2.3573      0.00000
    281       2.6986      0.00000
    282       2.7525      0.00000
    283       2.9719      0.00000
    284       3.0352      0.00000
    285       3.1089      0.00000
    286       3.2595      0.00000
    287       3.2610      0.00000
    288       3.3618      0.00000
    289       3.4126      0.00000
    290       3.4976      0.00000
    291       3.5474      0.00000
    292       3.6164      0.00000
    293       3.6534      0.00000
    294       3.7805      0.00000
    295       3.7882      0.00000
    296       3.8278      0.00000
    297       3.8551      0.00000
    298       3.9466      0.00000
    299       4.0389      0.00000
    300       4.0530      0.00000
    301       4.0641      0.00000
    302       4.1299      0.00000
    303       4.2259      0.00000
    304       4.2917      0.00000
    305       4.3360      0.00000
    306       4.3747      0.00000
    307       4.4505      0.00000
    308       4.5835      0.00000
    309       4.6888      0.00000
    310       4.7287      0.00000
    311       4.7625      0.00000
    312       5.0903      0.00000

 k-point     2 :       0.2500    0.0000    0.0000
  band No.  band energies     occupation 
      1     -29.1540      2.00000
      2     -29.1538      2.00000
      3     -29.0925      2.00000
      4     -29.0924      2.00000
      5     -29.0659      2.00000
      6     -29.0657      2.00000
      7     -28.9288      2.00000
      8     -28.9269      2.00000
      9     -28.9197      2.00000
     10     -28.9197      2.00000
     11     -28.8496      2.00000
     12     -28.8478      2.00000
     13     -28.8418      2.00000
     14     -28.8384      2.00000
     15     -28.8331      2.00000
     16     -28.8293      2.00000
     17     -28.8279      2.00000
     18     -28.8251      2.00000
     19     -28.8215      2.00000
     20     -28.8200      2.00000
     21     -28.8197      2.00000
     22     -28.8156      2.00000
     23     -28.8126      2.00000
     24     -28.8112      2.00000
     25     -28.7991      2.00000
     26     -28.7962      2.00000
     27     -28.7915      2.00000
     28     -28.7878      2.00000
     29     -28.7859      2.00000
     30     -28.7838      2.00000
     31     -28.7795      2.00000
     32     -28.7789      2.00000
     33     -28.7722      2.00000
     34     -28.7703      2.00000
     35     -28.7635      2.00000
     36     -28.7546      2.00000
     37     -28.7496      2.00000
     38     -28.7458      2.00000
     39     -28.7385      2.00000
     40     -28.7384      2.00000
     41     -28.7375      2.00000
     42     -28.7328      2.00000
     43     -28.7288      2.00000
     44     -28.7255      2.00000
     45     -28.7201      2.00000
     46     -28.7190      2.00000
     47     -28.7168      2.00000
     48     -28.7140      2.00000
     49     -28.7097      2.00000
     50     -28.7089      2.00000
     51     -28.7077      2.00000
     52     -28.7072      2.00000
     53     -28.7060      2.00000
     54     -28.7052      2.00000
     55     -28.7008      2.00000
     56     -28.6959      2.00000
     57     -28.6952      2.00000
     58     -28.6920      2.00000
     59     -28.6862      2.00000
     60     -28.6848      2.00000
     61     -28.6793      2.00000
     62     -28.6785      2.00000
     63     -28.6725      2.00000
     64     -28.6695      2.00000
     65     -28.6689      2.00000
     66     -28.6679      2.00000
     67     -28.6607      2.00000
     68     -28.6539      2.00000
     69     -28.6522      2.00000
     70     -28.6500      2.00000
     71     -28.6463      2.00000
     72     -28.6440      2.00000
     73     -28.6395      2.00000
     74     -28.6346      2.00000
     75     -28.6341      2.00000
     76     -28.6280      2.00000
     77     -28.6272      2.00000
     78     -28.6256      2.00000
     79     -28.6178      2.00000
     80     -28.6168      2.00000
     81     -28.6127      2.00000
     82     -28.6122      2.00000
     83     -28.6113      2.00000
     84     -28.6085      2.00000
     85     -28.6040      2.00000
     86     -28.6025      2.00000
     87     -28.5981      2.00000
     88     -28.5973      2.00000
     89     -28.5951      2.00000
     90     -28.5893      2.00000
     91     -28.5868      2.00000
     92     -28.5838      2.00000
     93     -28.5826      2.00000
     94     -28.5818      2.00000
     95     -28.5808      2.00000
     96     -28.5792      2.00000
     97     -28.5739      2.00000
     98     -28.5656      2.00000
     99     -28.5655      2.00000
    100     -28.5642      2.00000
    101     -28.5623      2.00000
    102     -28.5603      2.00000
    103     -28.5586      2.00000
    104     -28.5575      2.00000
    105     -28.5546      2.00000
    106     -28.5517      2.00000
    107     -28.5501      2.00000
    108     -28.5433      2.00000
    109     -28.5380      2.00000
    110     -28.5331      2.00000
    111     -28.5325      2.00000
    112     -28.5299      2.00000
    113     -28.5278      2.00000
    114     -28.5208      2.00000
    115     -28.5191      2.00000
    116     -28.5186      2.00000
    117     -28.5171      2.00000
    118     -28.5140      2.00000
    119     -28.5111      2.00000
    120     -28.5099      2.00000
    121     -28.5090      2.00000
    122     -28.5069      2.00000
    123     -28.5063      2.00000
    124     -28.5042      2.00000
    125     -28.5014      2.00000
    126     -28.5000      2.00000
    127     -28.4964      2.00000
    128     -28.4957      2.00000
    129     -28.4953      2.00000
    130     -28.4919      2.00000
    131     -28.4908      2.00000
    132     -28.4901      2.00000
    133     -28.4854      2.00000
    134     -28.4847      2.00000
    135     -28.4793      2.00000
    136     -28.4772      2.00000
    137     -28.4767      2.00000
    138     -28.4717      2.00000
    139     -28.4702      2.00000
    140     -28.4692      2.00000
    141     -28.4682      2.00000
    142     -28.4666      2.00000
    143     -28.4606      2.00000
    144     -28.4605      2.00000
    145     -28.4574      2.00000
    146     -28.4560      2.00000
    147     -28.4547      2.00000
    148     -28.4495      2.00000
    149     -28.4481      2.00000
    150     -28.4372      2.00000
    151     -28.4317      2.00000
    152     -28.4303      2.00000
    153     -28.4264      2.00000
    154     -28.4217      2.00000
    155     -28.4202      2.00000
    156     -28.4198      2.00000
    157     -28.4192      2.00000
    158     -28.4189      2.00000
    159     -28.4146      2.00000
    160     -28.4135      2.00000
    161     -28.4120      2.00000
    162     -28.4074      2.00000
    163     -28.4029      2.00000
    164     -28.4012      2.00000
    165     -28.3991      2.00000
    166     -28.3970      2.00000
    167     -28.3917      2.00000
    168     -28.3881      2.00000
    169     -28.3845      2.00000
    170     -28.3830      2.00000
    171     -28.2267      2.00000
    172     -28.2252      2.00000
    173     -28.2238      2.00000
    174     -28.2235      2.00000
    175     -28.2014      2.00000
    176     -28.2010      2.00000
    177     -28.1877      2.00000
    178     -28.1874      2.00000
    179     -28.1873      2.00000
    180     -28.1866      2.00000
    181     -14.4926      2.00000
    182     -14.0267      2.00000
    183     -13.4522      2.00000
    184     -13.3216      2.00000
    185     -13.0529      2.00000
    186     -12.5892      2.00000
    187     -12.5162      2.00000
    188     -12.5045      2.00000
    189     -12.3298      2.00000
    190     -12.1867      2.00000
    191     -12.0224      2.00000
    192     -11.9389      2.00000
    193     -11.5998      2.00000
    194     -11.3804      2.00000
    195     -11.3746      2.00000
    196     -11.1953      2.00000
    197     -11.1567      2.00000
    198     -10.8618      2.00000
    199     -10.7959      2.00000
    200     -10.5245      2.00000
    201      -9.5105      2.00000
    202      -9.4867      2.00000
    203      -9.4660      2.00000
    204      -9.3571      2.00000
    205      -9.2513      2.00000
    206      -8.9418      2.00000
    207      -8.7963      2.00000
    208      -8.5923      2.00000
    209      -8.3680      2.00000
    210      -8.3008      2.00000
    211      -8.0343      2.00000
    212      -7.6177      2.00000
    213      -7.4713      2.00000
    214      -7.2950      2.00000
    215      -6.9161      2.00000
    216      -6.6533      2.00000
    217      -6.1557      2.00000
    218      -5.9262      2.00000
    219      -5.1833      2.00000
    220      -5.1666      2.00000
    221      -5.1215      2.00000
    222      -4.8960      2.00000
    223      -4.6818      2.00000
    224      -4.5807      2.00000
    225      -4.5435      2.00000
    226      -4.4717      2.00000
    227      -4.3845      2.00000
    228      -4.2841      2.00000
    229      -4.1596      2.00000
    230      -4.1049      2.00000
    231      -4.0873      2.00000
    232      -3.9984      2.00000
    233      -3.7306      2.00000
    234      -3.7049      2.00000
    235      -3.6511      2.00000
    236      -3.6081      2.00000
    237      -3.4983      2.00000
    238      -3.4467      2.00000
    239      -3.2817      2.00000
    240      -3.1872      2.00000
    241      -3.0718      2.00000
    242      -2.9846      2.00000
    243      -2.8884      2.00000
    244      -2.8203      2.00000
    245      -2.7973      2.00000
    246      -2.6341      2.00000
    247      -2.4256      2.00000
    248      -2.2911      2.00000
    249      -2.2767      2.00000
    250      -2.2054      2.00000
    251      -2.0487      2.00000
    252      -2.0420      2.00000
    253      -1.9060      2.00000
    254      -1.6650      2.00000
    255      -1.4853      2.00000
    256      -1.2989      2.00000
    257      -0.0512      0.00000
    258      -0.0083      0.00000
    259       0.3490      0.00000
    260       0.6605      0.00000
    261       0.8069      0.00000
    262       0.9381      0.00000
    263       1.1284      0.00000
    264       1.1652      0.00000
    265       1.2358      0.00000
    266       1.2689      0.00000
    267       1.3448      0.00000
    268       1.4407      0.00000
    269       1.5044      0.00000
    270       1.5078      0.00000
    271       1.5609      0.00000
    272       1.7337      0.00000
    273       1.9011      0.00000
    274       2.0372      0.00000
    275       2.1088      0.00000
    276       2.2887      0.00000
    277       2.2952      0.00000
    278       2.5139      0.00000
    279       2.6298      0.00000
    280       2.6800      0.00000
    281       2.8581      0.00000
    282       2.9021      0.00000
    283       3.0078      0.00000
    284       3.0340      0.00000
    285       3.1712      0.00000
    286       3.1918      0.00000
    287       3.3396      0.00000
    288       3.3866      0.00000
    289       3.4113      0.00000
    290       3.4264      0.00000
    291       3.5417      0.00000
    292       3.5611      0.00000
    293       3.6802      0.00000
    294       3.7628      0.00000
    295       3.7839      0.00000
    296       3.8266      0.00000
    297       3.8462      0.00000
    298       3.9105      0.00000
    299       4.0143      0.00000
    300       4.0183      0.00000
    301       4.1954      0.00000
    302       4.2726      0.00000
    303       4.3333      0.00000
    304       4.3629      0.00000
    305       4.4631      0.00000
    306       4.4725      0.00000
    307       4.5756      0.00000
    308       4.6129      0.00000
    309       4.6608      0.00000
    310       4.7719      0.00000
    311       4.9795      0.00000
    312       5.0094      0.00000

 k-point     3 :       0.0000    0.2500    0.0000
  band No.  band energies     occupation 
      1     -29.1541      2.00000
      2     -29.1537      2.00000
      3     -29.0925      2.00000
      4     -29.0923      2.00000
      5     -29.0659      2.00000
      6     -29.0656      2.00000
      7     -28.9291      2.00000
      8     -28.9264      2.00000
      9     -28.9198      2.00000
     10     -28.9196      2.00000
     11     -28.8535      2.00000
     12     -28.8472      2.00000
     13     -28.8444      2.00000
     14     -28.8358      2.00000
     15     -28.8354      2.00000
     16     -28.8289      2.00000
     17     -28.8244      2.00000
     18     -28.8231      2.00000
     19     -28.8208      2.00000
     20     -28.8179      2.00000
     21     -28.8170      2.00000
     22     -28.8141      2.00000
     23     -28.8105      2.00000
     24     -28.8053      2.00000
     25     -28.8006      2.00000
     26     -28.7997      2.00000
     27     -28.7960      2.00000
     28     -28.7896      2.00000
     29     -28.7886      2.00000
     30     -28.7844      2.00000
     31     -28.7780      2.00000
     32     -28.7750      2.00000
     33     -28.7736      2.00000
     34     -28.7677      2.00000
     35     -28.7571      2.00000
     36     -28.7554      2.00000
     37     -28.7476      2.00000
     38     -28.7449      2.00000
     39     -28.7445      2.00000
     40     -28.7439      2.00000
     41     -28.7339      2.00000
     42     -28.7321      2.00000
     43     -28.7307      2.00000
     44     -28.7284      2.00000
     45     -28.7243      2.00000
     46     -28.7224      2.00000
     47     -28.7211      2.00000
     48     -28.7209      2.00000
     49     -28.7166      2.00000
     50     -28.7149      2.00000
     51     -28.7105      2.00000
     52     -28.7058      2.00000
     53     -28.7029      2.00000
     54     -28.7028      2.00000
     55     -28.7010      2.00000
     56     -28.6985      2.00000
     57     -28.6924      2.00000
     58     -28.6907      2.00000
     59     -28.6864      2.00000
     60     -28.6852      2.00000
     61     -28.6774      2.00000
     62     -28.6738      2.00000
     63     -28.6721      2.00000
     64     -28.6707      2.00000
     65     -28.6675      2.00000
     66     -28.6664      2.00000
     67     -28.6663      2.00000
     68     -28.6555      2.00000
     69     -28.6518      2.00000
     70     -28.6471      2.00000
     71     -28.6448      2.00000
     72     -28.6397      2.00000
     73     -28.6341      2.00000
     74     -28.6337      2.00000
     75     -28.6299      2.00000
     76     -28.6246      2.00000
     77     -28.6243      2.00000
     78     -28.6201      2.00000
     79     -28.6184      2.00000
     80     -28.6175      2.00000
     81     -28.6170      2.00000
     82     -28.6076      2.00000
     83     -28.6075      2.00000
     84     -28.6054      2.00000
     85     -28.6049      2.00000
     86     -28.6030      2.00000
     87     -28.6006      2.00000
     88     -28.5968      2.00000
     89     -28.5925      2.00000
     90     -28.5907      2.00000
     91     -28.5895      2.00000
     92     -28.5871      2.00000
     93     -28.5837      2.00000
     94     -28.5819      2.00000
     95     -28.5759      2.00000
     96     -28.5754      2.00000
     97     -28.5746      2.00000
     98     -28.5720      2.00000
     99     -28.5672      2.00000
    100     -28.5630      2.00000
    101     -28.5617      2.00000
    102     -28.5598      2.00000
    103     -28.5597      2.00000
    104     -28.5562      2.00000
    105     -28.5547      2.00000
    106     -28.5510      2.00000
    107     -28.5481      2.00000
    108     -28.5412      2.00000
    109     -28.5364      2.00000
    110     -28.5334      2.00000
    111     -28.5324      2.00000
    112     -28.5300      2.00000
    113     -28.5297      2.00000
    114     -28.5239      2.00000
    115     -28.5233      2.00000
    116     -28.5172      2.00000
    117     -28.5162      2.00000
    118     -28.5140      2.00000
    119     -28.5134      2.00000
    120     -28.5105      2.00000
    121     -28.5103      2.00000
    122     -28.5069      2.00000
    123     -28.5054      2.00000
    124     -28.5019      2.00000
    125     -28.4995      2.00000
    126     -28.4994      2.00000
    127     -28.4975      2.00000
    128     -28.4960      2.00000
    129     -28.4956      2.00000
    130     -28.4930      2.00000
    131     -28.4914      2.00000
    132     -28.4895      2.00000
    133     -28.4888      2.00000
    134     -28.4839      2.00000
    135     -28.4786      2.00000
    136     -28.4762      2.00000
    137     -28.4749      2.00000
    138     -28.4718      2.00000
    139     -28.4702      2.00000
    140     -28.4697      2.00000
    141     -28.4679      2.00000
    142     -28.4675      2.00000
    143     -28.4664      2.00000
    144     -28.4625      2.00000
    145     -28.4598      2.00000
    146     -28.4551      2.00000
    147     -28.4507      2.00000
    148     -28.4474      2.00000
    149     -28.4470      2.00000
    150     -28.4440      2.00000
    151     -28.4404      2.00000
    152     -28.4347      2.00000
    153     -28.4238      2.00000
    154     -28.4221      2.00000
    155     -28.4204      2.00000
    156     -28.4192      2.00000
    157     -28.4184      2.00000
    158     -28.4183      2.00000
    159     -28.4134      2.00000
    160     -28.4117      2.00000
    161     -28.4095      2.00000
    162     -28.4058      2.00000
    163     -28.4055      2.00000
    164     -28.4051      2.00000
    165     -28.4007      2.00000
    166     -28.3961      2.00000
    167     -28.3911      2.00000
    168     -28.3856      2.00000
    169     -28.3804      2.00000
    170     -28.3780      2.00000
    171     -28.2268      2.00000
    172     -28.2245      2.00000
[...]
    304       4.7344      0.00000
    305       4.7518      0.00000
    306       4.7525      0.00000
    307       4.8111      0.00000
    308       4.8119      0.00000
    309       4.9065      0.00000
    310       4.9083      0.00000
    311       5.0025      0.00000
    312       5.0113      0.00000


--------------------------------------------------------------------------------------------------------


 soft charge-density along one line, spin component           1
         0         1         2         3         4         5         6         7         8         9
 total charge-density along one line

 pseudopotential strength for first ion, spin component:           1
-24.603  -0.000   0.000   0.000  -0.000   5.330   0.000  -0.000
 -0.000 -24.603   0.000  -0.000  -0.000   0.000   5.331  -0.000
  0.000   0.000 -24.603  -0.000   0.000  -0.000  -0.000   5.331
  0.000  -0.000  -0.000 -24.604  -0.000  -0.000   0.000   0.000
 -0.000  -0.000   0.000  -0.000 -24.604   0.000   0.000  -0.000
  5.330   0.000  -0.000  -0.000   0.000   1.554  -0.000   0.000
  0.000   5.331  -0.000   0.000   0.000  -0.000   1.554   0.000
 -0.000  -0.000   5.331   0.000  -0.000   0.000   0.000   1.554
 -0.000   0.000   0.000   5.331   0.000   0.000  -0.000  -0.000
  0.000   0.000  -0.000   0.000   5.331   0.000  -0.000   0.000
 -0.000  -0.000   0.000  -0.000  -0.000   0.000   0.000  -0.000
 -0.000  -0.000   0.000  -0.000  -0.000   0.000   0.000  -0.000
  0.000  -0.004  -0.000  -0.000  -0.000   0.000   0.002  -0.000
 -0.000   0.000  -0.000   0.000   0.004   0.000   0.000  -0.000
  0.000  -0.000  -0.000   0.004   0.000   0.000   0.000  -0.000
  0.000  -0.007  -0.000  -0.000  -0.000   0.000   0.005  -0.000
 -0.000   0.000  -0.000   0.000   0.007   0.000   0.000  -0.000
  0.000  -0.000  -0.000   0.007   0.000   0.000   0.000  -0.000
 total augmentation occupancy for first ion, spin component:           1
  1.991   0.000  -0.000  -0.000   0.000  -0.012   0.000  -0.000  -0.000  -0.000   0.000  -0.000  -0.000  -0.000  -0.001   0.000
  0.000   1.994   0.000   0.000  -0.000   0.000  -0.002   0.000  -0.000  -0.000  -0.000   0.000  -0.072  -0.001  -0.000   0.025
 -0.000   0.000   1.991  -0.000  -0.000  -0.000   0.000  -0.012  -0.000  -0.000  -0.000   0.000  -0.000   0.000   0.000  -0.000
 -0.000   0.000  -0.000   1.994  -0.000  -0.000  -0.000  -0.000  -0.002   0.000  -0.000   0.000  -0.000  -0.000   0.071   0.000
  0.000  -0.000  -0.000  -0.000   1.994  -0.000  -0.000  -0.000   0.000  -0.002  -0.000   0.000  -0.000   0.071  -0.000  -0.000
 -0.012   0.000  -0.000  -0.000  -0.000   0.012   0.000   0.000  -0.000  -0.000   0.000  -0.000  -0.000  -0.001  -0.002   0.000
  0.000  -0.002   0.000  -0.000  -0.000   0.000   0.046   0.000  -0.000  -0.000  -0.000  -0.000  -0.255  -0.002  -0.001   0.049
 -0.000   0.000  -0.012  -0.000  -0.000   0.000   0.000   0.012  -0.000  -0.000  -0.000   0.000  -0.001  -0.001   0.000   0.000
 -0.000  -0.000  -0.000  -0.002   0.000  -0.000  -0.000  -0.000   0.045   0.000  -0.000   0.000  -0.000   0.000   0.253   0.000
 -0.000  -0.000  -0.000   0.000  -0.002  -0.000  -0.000  -0.000   0.000   0.045  -0.000   0.001  -0.001   0.253  -0.000   0.000
  0.000  -0.000  -0.000  -0.000  -0.000   0.000  -0.000  -0.000  -0.000  -0.000   5.022  -1.875   0.002  -0.007  -0.000  -0.000
 -0.000   0.000   0.000   0.000   0.000  -0.000  -0.000   0.000   0.000   0.001  -1.875   0.793  -0.001   0.005  -0.000   0.000
 -0.000  -0.072  -0.000  -0.000  -0.000  -0.000  -0.255  -0.001  -0.000  -0.001   0.002  -0.001   2.317   0.001   0.001  -0.445
 -0.000  -0.001   0.000  -0.000   0.071  -0.001  -0.002  -0.001   0.000   0.253  -0.007   0.005   0.001   2.309  -0.001   0.000
 -0.001  -0.000   0.000   0.071  -0.000  -0.002  -0.001   0.000   0.253  -0.000  -0.000  -0.000   0.001  -0.001   2.309  -0.000
  0.000   0.025  -0.000   0.000  -0.000   0.000   0.049   0.000   0.000   0.000  -0.000   0.000  -0.445   0.000  -0.000   0.091
  0.000   0.000  -0.000   0.000  -0.025   0.000   0.000   0.000  -0.000  -0.049   0.001  -0.000   0.000  -0.444   0.000  -0.000
  0.000   0.000  -0.000  -0.025   0.000   0.000   0.000  -0.000  -0.049  -0.000   0.000  -0.000  -0.000   0.000  -0.443   0.000


------------------------ aborting loop because EDIFF is reached ----------------------------------------





 total charge

# of ion       s       p       d       tot
------------------------------------------
    1        1.114   1.290  10.028  12.432
    2        1.135   1.208  10.019  12.362
    3        1.105   1.310  10.025  12.440
    4        1.121   1.281  10.029  12.430
    5        1.097   1.438  10.063  12.597
    6        1.116   1.272  10.025  12.414
    7        1.251   0.994  10.001  12.246
    8        1.111   1.292  10.028  12.432
    9        1.127   1.243  10.027  12.398
   10        1.114   1.290  10.028  12.432
   11        1.135   1.208  10.019  12.361
   12        1.105   1.310  10.025  12.440
   13        1.121   1.281  10.029  12.430
   14        1.097   1.438  10.063  12.597
   15        1.117   1.270  10.026  12.413
   16        1.200   1.060  10.007  12.267
   17        1.111   1.292  10.028  12.432
   18        1.127   1.243  10.027  12.398
   19        1.114   1.290  10.028  12.432
   20        1.135   1.208  10.019  12.362
   21        1.105   1.311  10.025  12.440
   22        1.121   1.218  10.018  12.357
   23        1.097   1.438  10.063  12.597
   24        1.117   1.270  10.026  12.413
   25        1.200   1.060  10.007  12.267
   26        1.111   1.294  10.028  12.433
   27        1.122   1.205  10.020  12.347
   28        1.114   1.290  10.028  12.432
   29        1.135   1.208  10.019  12.361
   30        1.105   1.311  10.025  12.440
   31        1.121   1.218  10.018  12.357
   32        1.097   1.438  10.063  12.597
   33        1.116   1.272  10.025  12.414
   34        1.251   0.994  10.001  12.246
   35        1.111   1.294  10.028  12.433
   36        1.122   1.205  10.020  12.347
   37        0.554   0.017   0.000   0.571
   38        0.554   0.017   0.000   0.571
   39        0.554   0.017   0.000   0.571
   40        0.554   0.017   0.000   0.571
   41        0.554   0.017   0.000   0.571
   42        0.554   0.017   0.000   0.571
   43        0.554   0.017   0.000   0.571
   44        0.554   0.017   0.000   0.571
--------------------------------------------------
tot         45.033  45.379 360.954 451.366

    FORLOC:  cpu time      0.0107: real time      0.0107
    FORHF :  cpu time  16694.5871: real time  16695.3792
    FORNL :  cpu time     23.8330: real time     23.8332
    FORCOR:  cpu time      0.3413: real time      0.3414
    OFIELD:  cpu time      0.0009: real time      0.0009

 VOLUME and BASIS-vectors are now :
 -----------------------------------------------------------------------------
  energy-cutoff  :      450.00
  volume of cell :     2095.16
      direct lattice vectors                 reciprocal lattice vectors
     8.000913230  0.000000000  0.000000000     0.124985732  0.000000000  0.000000000
     0.000000000  8.000913230  0.000000000     0.000000000  0.124985732  0.000000000
     0.000000000  0.000000000 32.729375000     0.000000000  0.000000000  0.030553593

  length of vectors
     8.000913230  8.000913230 32.729375000     0.124985732  0.124985732  0.030553593


 FORCES acting on ions:
    Electron-Ion                     Ewald-Force                    Non-Local-Force
 -----------------------------------------------------------------------------------------------
   0.853E-01 0.209E+02 0.122E+04   -.122E+00 -.211E+02 -.122E+04   0.293E-01 0.951E-01 -.141E+00
   -.162E+02 0.385E+03 -.415E+04   0.203E+02 -.386E+03 0.415E+04   -.387E+01 0.998E+00 -.274E+01
   0.497E-03 0.130E-02 0.387E+04   -.455E-03 0.735E-02 -.387E+04   -.397E-04 -.499E-02 0.233E+00
   0.257E-01 -.264E+01 -.133E+04   -.247E-01 0.272E+01 0.133E+04   -.152E-03 -.591E-01 -.201E+00
   0.243E-04 0.661E+00 0.506E+04   -.736E-04 -.798E+00 -.506E+04   0.301E-04 0.109E+00 0.209E+01
   0.480E-02 0.687E+02 -.101E+03   -.450E-02 -.686E+02 0.102E+03   -.386E-04 -.419E+00 -.287E+00
   -.257E-01 0.320E+03 -.541E+04   0.199E-01 -.327E+03 0.543E+04   0.740E-03 0.630E+01 -.196E+02
   0.281E-04 0.187E-03 0.257E+04   -.390E-04 -.217E-03 -.257E+04   0.715E-21 -.149E-21 -.217E+00
   0.190E-02 0.192E-02 -.253E+04   -.122E-02 -.325E-02 0.253E+04   0.603E-20 -.253E-19 -.174E+00
   -.858E-01 0.209E+02 0.122E+04   0.122E+00 -.211E+02 -.122E+04   -.288E-01 0.951E-01 -.141E+00
   0.160E+02 0.385E+03 -.415E+04   -.202E+02 -.386E+03 0.415E+04   0.387E+01 0.999E+00 -.274E+01
   -.512E-03 -.117E-02 0.387E+04   0.459E-03 -.749E-02 -.387E+04   0.397E-04 0.499E-02 0.233E+00
   -.221E-01 0.265E+01 -.133E+04   0.247E-01 -.273E+01 0.133E+04   0.152E-03 0.591E-01 -.201E+00
   -.435E-04 0.671E+00 0.506E+04   0.724E-04 -.798E+00 -.506E+04   -.261E-04 0.101E+00 0.209E+01
   -.431E-02 0.625E+02 -.103E+03   0.425E-02 -.623E+02 0.103E+03   0.709E-04 -.356E+00 -.392E+00
   0.206E+00 0.301E+03 -.485E+04   -.212E+00 -.299E+03 0.485E+04   0.160E-02 -.156E+01 -.334E+01
   0.156E-05 0.194E-03 0.257E+04   -.394E-05 -.238E-03 -.257E+04   0.733E-21 -.833E-21 -.217E+00
   0.227E-02 -.855E-02 -.253E+04   -.119E-02 0.451E-02 0.253E+04   -.284E-20 -.769E-19 -.176E+00
   -.852E-01 -.209E+02 0.122E+04   0.122E+00 0.211E+02 -.122E+04   -.293E-01 -.951E-01 -.141E+00
   0.162E+02 -.385E+03 -.415E+04   -.203E+02 0.386E+03 0.415E+04   0.387E+01 -.998E+00 -.274E+01
   0.170E-03 0.132E-01 0.387E+04   0.123E-05 -.306E-02 -.387E+04   -.138E-03 -.300E-02 0.280E-01
   -.348E-01 0.256E+01 -.152E+04   0.342E-01 -.260E+01 0.152E+04   0.812E-03 0.392E-01 -.241E+00
   0.323E-04 -.671E+00 0.506E+04   -.731E-04 0.798E+00 -.506E+04   0.261E-04 -.101E+00 0.209E+01
   0.400E-02 -.625E+02 -.103E+03   -.388E-02 0.623E+02 0.103E+03   -.709E-04 0.356E+00 -.392E+00
   -.203E+00 -.301E+03 -.485E+04   0.207E+00 0.299E+03 0.485E+04   -.160E-02 0.156E+01 -.334E+01
   -.375E-04 -.177E-03 0.256E+04   0.395E-04 0.202E-03 -.255E+04   0.829E-21 -.134E-21 -.363E+00
   -.868E-03 -.376E-02 -.296E+04   -.107E-02 0.449E-02 0.296E+04   0.229E-19 0.125E-19 0.836E+00
   0.860E-01 -.209E+02 0.122E+04   -.122E+00 0.211E+02 -.122E+04   0.288E-01 -.951E-01 -.141E+00
   -.161E+02 -.385E+03 -.415E+04   0.202E+02 0.386E+03 0.415E+04   -.387E+01 -.999E+00 -.274E+01
   -.167E-03 -.133E-01 0.387E+04   -.114E-05 0.320E-02 -.387E+04   0.138E-03 0.300E-02 0.280E-01
   0.303E-01 -.256E+01 -.152E+04   -.299E-01 0.261E+01 0.152E+04   -.812E-03 -.392E-01 -.241E+00
   -.213E-04 -.661E+00 0.506E+04   0.747E-04 0.798E+00 -.506E+04   -.301E-04 -.109E+00 0.209E+01
   -.579E-02 -.687E+02 -.101E+03   0.573E-02 0.686E+02 0.102E+03   0.386E-04 0.419E+00 -.287E+00
   0.126E-01 -.320E+03 -.541E+04   -.160E-01 0.327E+03 0.543E+04   -.740E-03 -.630E+01 -.196E+02
   0.352E-04 -.180E-03 0.256E+04   -.360E-04 0.222E-03 -.255E+04   -.514E-22 0.753E-21 -.364E+00
   -.106E-02 0.107E-02 -.296E+04   -.192E-02 0.165E-02 0.296E+04   0.320E-19 -.187E-19 0.837E+00
   -.489E+02 0.326E-01 0.417E+03   0.509E+02 -.286E-01 -.419E+03   -.212E+01 0.153E-02 0.156E+01
   0.489E+02 0.327E-01 0.417E+03   -.509E+02 -.286E-01 -.419E+03   0.212E+01 0.153E-02 0.156E+01
   -.489E+02 0.321E-01 0.417E+03   0.509E+02 -.286E-01 -.419E+03   -.212E+01 0.135E-02 0.156E+01
   0.489E+02 0.321E-01 0.417E+03   -.509E+02 -.286E-01 -.419E+03   0.212E+01 0.135E-02 0.156E+01
   -.489E+02 -.321E-01 0.417E+03   0.509E+02 0.286E-01 -.419E+03   -.212E+01 -.135E-02 0.156E+01
   0.489E+02 -.321E-01 0.417E+03   -.509E+02 0.286E-01 -.419E+03   0.212E+01 -.135E-02 0.156E+01
   -.489E+02 -.327E-01 0.417E+03   0.509E+02 0.286E-01 -.419E+03   -.212E+01 -.153E-02 0.156E+01
   0.489E+02 -.326E-01 0.417E+03   -.509E+02 0.286E-01 -.419E+03   0.212E+01 -.153E-02 0.156E+01
 -----------------------------------------------------------------------------------------------
   -.156E-01 -.894E-02 0.421E+02   -.355E-13 0.558E-13 0.654E-11   0.000E+00 0.889E-15 -.381E+02


 POSITION                                       TOTAL-FORCE (eV/Angst)
 -----------------------------------------------------------------------------------
      0.00000      0.00000     15.65750        -0.005020     -0.093734      0.020590
      0.13857      0.06605     21.50993        -0.084272      0.144409     -0.077617
      2.00023      2.00023     12.82875         0.000003      0.002947     -0.156234
      2.00029      1.99302     18.47966        -0.000893      0.013050     -0.016775
      2.00023      0.00000     11.41438        -0.000019     -0.017329      0.389088
      2.00023      0.00000     17.07188         0.000127     -0.286286      0.356506
      2.00010      0.57722     23.18810        -0.000351      0.085733     -0.246497
      0.00000      2.00023     14.24312        -0.000000     -0.000000     -0.013603
      8.00091      2.00023     19.90778        -0.000000     -0.000000     -0.022929
      4.00046      0.00000     15.65750         0.004990     -0.093831      0.020559
      3.86154      0.06581     21.51004         0.087463      0.147908     -0.077666
      6.00068      2.00023     12.82875        -0.000003     -0.002947     -0.156234
      6.00061      2.00745     18.47967         0.000893     -0.013050     -0.016775
      6.00068      0.00000     11.41438         0.000006     -0.015777      0.389064
      6.00068      0.00000     17.07188        -0.000017     -0.174703      0.335130
      6.00073      1.00966     22.30970        -0.002825     -0.029209     -0.145452
      4.00046      2.00023     14.24312        -0.000000     -0.000000     -0.013574
      4.00045      2.00024     19.90774        -0.000000     -0.000000     -0.019615
      0.00000      4.00046     15.65750         0.005020      0.093734      0.020590
      7.86236      3.93442     21.50992         0.084272     -0.144409     -0.077617
      2.00023      6.00068     12.82875         0.000016      0.006265     -0.147805
      2.00020      5.99172     18.59126         0.000347      0.000376      0.032918
      2.00023      4.00046     11.41438        -0.000006      0.015777      0.389064
      2.00023      4.00046     17.07188         0.000017      0.174703      0.335130
      2.00018      2.99080     22.30971         0.002825      0.029209     -0.145452
      0.00000      6.00068     14.24312        -0.000000     -0.000000     -0.047764
      0.00001      6.00069     20.09844        -0.000000     -0.000000     -0.053859
      4.00046      4.00046     15.65750        -0.004990      0.093831      0.020559
      4.13939      3.93466     21.51007        -0.087463     -0.147908     -0.077666
      6.00068      6.00068     12.82875        -0.000016     -0.006265     -0.147805
      6.00071      6.00965     18.59126        -0.000347     -0.000376      0.032918
      6.00068      4.00046     11.41438         0.000019      0.017329      0.389088
      6.00068      4.00046     17.07188        -0.000127      0.286286      0.356506
      6.00084      3.42323     23.18811         0.000351     -0.085733     -0.246497
      4.00046      6.00068     14.24312        -0.000000     -0.000000     -0.047768
      4.00046      6.00068     20.09851        -0.000000     -0.000000     -0.055204
      3.24130      0.00000     10.53680        -0.222482      0.005631     -0.134338
      0.75915      0.00000     10.53680         0.222483      0.005638     -0.134344
      7.24176      0.00000     10.53680        -0.222669      0.004864     -0.134987
      4.75961      0.00000     10.53680         0.222667      0.004859     -0.134984
      3.24130      4.00046     10.53680        -0.222667     -0.004859     -0.134984
      0.75915      4.00046     10.53680         0.222669     -0.004864     -0.134987
      7.24176      4.00046     10.53680        -0.222483     -0.005638     -0.134344
      4.75961      4.00046     10.53680         0.222482     -0.005631     -0.134338
 -----------------------------------------------------------------------------------
    total drift:                               -0.015571     -0.008939      0.375520


--------------------------------------------------------------------------------------------------------



  FREE ENERGIE OF THE ION-ELECTRON SYSTEM (eV)
  ---------------------------------------------------
  free  energy   TOTEN  =      -217.64291130 eV

  energy  without entropy=     -217.64291130  energy(sigma->0) =     -217.64291130



--------------------------------------------------------------------------------------------------------


    POTLOK:  cpu time      0.3415: real time      0.3415


--------------------------------------------------------------------------------------------------------


 writing wavefunctions
     LOOP+:  cpu time 150646.8209: real time 150656.7272
    4ORBIT:  cpu time      0.0000: real time      0.0000



 total charge

# of ion       s       p       d       tot
------------------------------------------
    1        1.114   1.290  10.028  12.432
    2        1.135   1.208  10.019  12.362
    3        1.105   1.310  10.025  12.440
    4        1.121   1.281  10.029  12.430
    5        1.097   1.438  10.063  12.597
    6        1.116   1.272  10.025  12.414
    7        1.251   0.994  10.001  12.246
    8        1.111   1.292  10.028  12.432
    9        1.127   1.243  10.027  12.398
   10        1.114   1.290  10.028  12.432
   11        1.135   1.208  10.019  12.361
   12        1.105   1.310  10.025  12.440
   13        1.121   1.281  10.029  12.430
   14        1.097   1.438  10.063  12.597
   15        1.117   1.270  10.026  12.413
   16        1.200   1.060  10.007  12.267
   17        1.111   1.292  10.028  12.432
   18        1.127   1.243  10.027  12.398
   19        1.114   1.290  10.028  12.432
   20        1.135   1.208  10.019  12.362
   21        1.105   1.311  10.025  12.440
   22        1.121   1.218  10.018  12.357
   23        1.097   1.438  10.063  12.597
   24        1.117   1.270  10.026  12.413
   25        1.200   1.060  10.007  12.267
   26        1.111   1.294  10.028  12.433
   27        1.122   1.205  10.020  12.347
   28        1.114   1.290  10.028  12.432
   29        1.135   1.208  10.019  12.361
   30        1.105   1.311  10.025  12.440
   31        1.121   1.218  10.018  12.357
   32        1.097   1.438  10.063  12.597
   33        1.116   1.272  10.025  12.414
   34        1.251   0.994  10.001  12.246
   35        1.111   1.294  10.028  12.433
   36        1.122   1.205  10.020  12.347
   37        0.554   0.017   0.000   0.571
   38        0.554   0.017   0.000   0.571
   39        0.554   0.017   0.000   0.571
   40        0.554   0.017   0.000   0.571
   41        0.554   0.017   0.000   0.571
   42        0.554   0.017   0.000   0.571
   43        0.554   0.017   0.000   0.571
   44        0.554   0.017   0.000   0.571
--------------------------------------------------
tot         45.033  45.379 360.954 451.366


 total amount of memory used by VASP MPI-rank0   484757. kBytes
=======================================================================

   base      :      30000. kBytes
   nonl-proj :      32793. kBytes
   fftplans  :      17272. kBytes
   grid      :       7828. kBytes
   one-center:        139. kBytes
   HF        :        129. kBytes
   nonlr-proj:       6075. kBytes
   wavefun   :     232128. kBytes
   fock_wrk  :     158393. kBytes

  
  
 General timing and accounting informations for this job:
 ========================================================
  
                  Total CPU time used (sec):   150668.562
                            User time (sec):   134028.277
                          System time (sec):    16640.280
                         Elapsed time (sec):   150678.777
  
                   Maximum memory used (kb):      895892.
                   Average memory used (kb):          N/A
  
                          Minor page faults:    155603068
                          Major page faults:            8
                 Voluntary context switches:         2948
