 vasp.6.3.2 27Jun22 (build Nov 28 2025 11:56:12) complex                         
 executed on             LinuxGNU date 2026.01.18  16:42:15
 running    2 mpi-ranks, with    1 threads/rank
 distrk:  each k-point on    2 cores,    1 groups
 distr:  one band on NCORE=   1 cores,    2 groups


--------------------------------------------------------------------------------------------------------


 INCAR:
   ISTART = 1            (Read existing wavefunction, if there)
   ISPIN = 1            (Non-Spin polarised DFT)
   LREAL = .FALSE.       (Projection operators: automatic)
   ENCUT = 450          (Cut-off energy for plane wave basis set, in eV)
   PREC = Accurate     (Precision level: Normal or Accurate, set Accurate when perform structure lattice relaxation calculation)
   LWAVE = .FALSE.        (Write WAVECAR or not)
   LCHARG = .FALSE.        (Write CHGCAR or not)
   ADDGRID = .TRUE.        (Increase grid, helps GGA convergence)
   ISMEAR = -5            (gaussian smearing method)
   SIGMA = 0.05         (please check the width of the smearing)
   LHFCALC = .TRUE.       (Activate HF)
   AEXX = 0.25        (25% HF exact exchange, adjusted this value to reproduce experimental band gap)
   HFSCREEN = 0.2         (Switch to screened exchange, e.g. HSE06)
   ALGO = Normal      (Electronic Minimisation Algorithm, ALGO\=58)
   TIME = 0.4         (Timestep for IALGO5X)
   PRECFOCK = N           (HF FFT grid)
   LORBIT = 10           (PAW radii for projected DOS)
   NEDOS = 1000         (DOSCAR points)

 POTCAR:    PAW_PBE Ge_d 03Jul2007                
 POTCAR:    PAW_PBE Ge_d 03Jul2007                
   VRHFIN =Ge: 3d4s4p                                                                               
   LEXCH  = PE                                                                                      
   EATOM  =  2596.2402 eV,  190.8183 Ry                                                             
                                                                                                    
   TITEL  = PAW_PBE Ge_d 03Jul2007                                                                  
   LULTRA =        F    use ultrasoft PP ?                                                          
   IUNSCR =        1    unscreen: 0-lin 1-nonlin 2-no                                               
   RPACOR =    2.000    partial core radius                                                         
   POMASS =   72.610; ZVAL   =   14.000    mass and valenz                                          
   RCORE  =    2.300    outmost cutoff radius                                                       
   RWIGS  =    2.300; RWIGS  =    1.217    wigner-seitz radius (au A)                               
   ENMAX  =  310.294; ENMIN  =  232.720 eV                                                          
   ICORE  =        3    local potential                                                             
   LCOR   =        T    correct aug charges                                                         
   LPAW   =        T    paw PP                                                                      
   EAUG   =  531.356                                                                                
   DEXC   =    0.000                                                                                
   RMAX   =    2.342    core radius for proj-oper                                                   
   RAUG   =    1.300    factor for augmentation sphere                                              
   RDEP   =    2.318    radius for radial grids                                                     
   RDEPT  =    1.783    core radius for aug-charge                                                  
                                                                                                    
   Atomic configuration                                                                             
    9 entries                                                                                       
     n  l   j            E        occ.                                                              
     1  0  0.50    -10959.8463   2.0000                                                             
     2  0  0.50     -1371.6056   2.0000                                                             
     2  1  1.50     -1198.4791   6.0000                                                             
     3  0  0.50      -168.4733   2.0000                                                             
     3  1  1.50      -115.6019   6.0000                                                             
     3  2  2.50       -29.3106  10.0000                                                             
     4  0  0.50       -11.7309   2.0000                                                             
     4  1  0.50        -3.8952   2.0000                                                             
     4  3  2.50        -4.0817   0.0000                                                             
   Description                                                                                      
     l       E           TYP  RCUT    TYP  RCUT                                                     
     2    -29.3105938     23  2.200                                                                 
     2    -13.6058260     23  2.200                                                                 
     0    -11.7309493     23  2.300                                                                 
     0     -7.4578696     23  2.300                                                                 
     1     -3.8952261     23  2.300                                                                 
     1      6.1178114     23  2.300                                                                 
     3     -1.3605826     23  2.300                                                                 
  local pseudopotential read in
  partial core-charges read in
  partial kinetic energy density read in
  atomic valenz-charges read in
  non local Contribution for L=           2  read in
    real space projection operators read in
  non local Contribution for L=           2  read in
    real space projection operators read in
  non local Contribution for L=           0  read in
    real space projection operators read in
  non local Contribution for L=           0  read in
    real space projection operators read in
  non local Contribution for L=           1  read in
    real space projection operators read in
  non local Contribution for L=           1  read in
    real space projection operators read in
    PAW grid and wavefunctions read in

   number of l-projection  operators is LMAX  =           6
   number of lm-projection operators is LMMAX =          18

  PAW_PBE Ge_d 03Jul2007                :
 energy of atom  1       EATOM=-2596.2402
 kinetic energy error for atom=    0.0077 (will be added to EATOM!!)


 POSCAR: cubic diamond Ge
  positions in direct lattice
  velocities in cartesian coordinates
 exchange correlation table for  LEXCH =        8
   RHO(1)=    0.500       N(1)  =     2000
   RHO(2)=  100.500       N(2)  =     4000



--------------------------------------------------------------------------------------------------------


 ion  position               nearest neighbor table
   1  0.875  0.875  0.875-   2 2.37   2 2.37   2 2.37   2 2.37
   2  0.125  0.125  0.125-   1 2.37   1 2.37   1 2.37   1 2.37

  LATTYP: Found a face centered cubic cell.
 ALAT       =     5.4686588151
  
  Lattice vectors:
  
 A1 = (   0.0000000000,   2.7343294076,   2.7343294076)
 A2 = (   2.7343294076,   0.0000000000,   2.7343294076)
 A3 = (   2.7343294076,   2.7343294076,   0.0000000000)


Analysis of symmetry for initial positions (statically):
=====================================================================
 Subroutine PRICEL returns:
 Original cell was already a primitive cell.
 

 Routine SETGRP: Setting up the symmetry group for a 
 face centered cubic supercell.


 Subroutine GETGRP returns: Found 48 space group operations
 (whereof 12 operations were pure point group operations)
 out of a pool of 48 trial point group operations.


The static configuration has the point symmetry D_3d.
 The point group associated with its full space group is O_h .


Analysis of symmetry for dynamics (positions and initial velocities):
=====================================================================
 Subroutine PRICEL returns:
 Original cell was already a primitive cell.
 

 Routine SETGRP: Setting up the symmetry group for a 
 face centered cubic supercell.


 Subroutine GETGRP returns: Found 48 space group operations
 (whereof 12 operations were pure point group operations)
 out of a pool of 48 trial point group operations.


The dynamic configuration has the point symmetry D_3d.
 The point group associated with its full space group is O_h .


 Subroutine INISYM returns: Found 48 space group operations
 (whereof 12 operations are pure point group operations),
 and found     1 'primitive' translations


----------------------------------------------------------------------------------------

                                     Primitive cell                                     

  volume of cell :      40.8867

  direct lattice vectors                    reciprocal lattice vectors
     0.000000000  2.734329408  2.734329408    -0.182860192  0.182860192  0.182860192
     2.734329408  0.000000000  2.734329408     0.182860192 -0.182860192  0.182860192
     2.734329408  2.734329408  0.000000000     0.182860192  0.182860192 -0.182860192

  length of vectors
     3.866925732  3.866925732  3.866925732     0.316723143  0.316723143  0.316723143

  position of ions in fractional coordinates (direct lattice)
     0.875000000  0.875000000  0.875000000
     0.125000000  0.125000000  0.125000000

  ion indices of the primitive-cell ions
   primitive index   ion index
                 1           1
                 2           2

----------------------------------------------------------------------------------------



 KPOINTS: K-Spacing Value to Generate K-Mesh: 0.03

Automatic generation of k-mesh.
 Grid dimensions read from file:
 generate k-points for:   11   11   11

 Generating k-lattice:

  Cartesian coordinates                     Fractional coordinates (reciprocal lattice)
    -0.016623654  0.016623654  0.016623654     0.090909091  0.000000000 -0.000000000
     0.016623654 -0.016623654  0.016623654     0.000000000  0.090909091  0.000000000
     0.016623654  0.016623654 -0.016623654    -0.000000000 -0.000000000  0.090909091

  Length of vectors
     0.028793013  0.028793013  0.028793013

  Shift w.r.t. Gamma in fractional coordinates (k-lattice)
     0.000000000  0.000000000  0.000000000

 TETIRR: Found    201 inequivalent tetrahedra from     7986
 
 Subroutine IBZKPT returns following result:
 ===========================================
 
 Found     56 irreducible k-points:
 
 Following reciprocal coordinates:
            Coordinates               Weight
  0.000000  0.000000  0.000000      1.000000
  0.090909  0.000000  0.000000      8.000000
  0.181818  0.000000  0.000000      8.000000
  0.272727  0.000000  0.000000      8.000000
  0.363636  0.000000  0.000000      8.000000
  0.454545  0.000000  0.000000      8.000000
  0.090909  0.090909  0.000000      6.000000
  0.181818  0.090909  0.000000     24.000000
  0.272727  0.090909  0.000000     24.000000
  0.363636  0.090909  0.000000     24.000000
  0.454545  0.090909  0.000000     24.000000
 -0.454545  0.090909  0.000000     24.000000
 -0.363636  0.090909  0.000000     24.000000
 -0.272727  0.090909  0.000000     24.000000
 -0.181818  0.090909  0.000000     24.000000
 -0.090909  0.090909  0.000000     12.000000
  0.181818  0.181818  0.000000      6.000000
  0.272727  0.181818  0.000000     24.000000
  0.363636  0.181818  0.000000     24.000000
  0.454545  0.181818  0.000000     24.000000
 -0.454545  0.181818  0.000000     24.000000
 -0.363636  0.181818  0.000000     24.000000
 -0.272727  0.181818  0.000000     24.000000
 -0.181818  0.181818  0.000000     12.000000
  0.272727  0.272727  0.000000      6.000000
  0.363636  0.272727  0.000000     24.000000
  0.454545  0.272727  0.000000     24.000000
 -0.454545  0.272727  0.000000     24.000000
 -0.363636  0.272727  0.000000     24.000000
 -0.272727  0.272727  0.000000     12.000000
  0.363636  0.363636  0.000000      6.000000
  0.454545  0.363636  0.000000     24.000000
 -0.454545  0.363636  0.000000     24.000000
 -0.363636  0.363636  0.000000     12.000000
  0.454545  0.454545  0.000000      6.000000
 -0.454545  0.454545  0.000000     12.000000
  0.272727  0.181818  0.090909     24.000000
  0.363636  0.181818  0.090909     48.000000
  0.454545  0.181818  0.090909     48.000000
 -0.454545  0.181818  0.090909     48.000000
  0.363636  0.272727  0.090909     24.000000
  0.454545  0.272727  0.090909     48.000000
 -0.454545  0.272727  0.090909     48.000000
 -0.363636  0.272727  0.090909     48.000000
 -0.272727  0.272727  0.090909     48.000000
 -0.181818  0.272727  0.090909     24.000000
  0.454545  0.363636  0.090909     24.000000
 -0.454545  0.363636  0.090909     48.000000
 -0.363636  0.363636  0.090909     48.000000
 -0.272727  0.363636  0.090909     24.000000
 -0.454545  0.454545  0.090909     24.000000
 -0.363636  0.454545  0.090909     24.000000
 -0.454545  0.363636  0.181818     24.000000
 -0.363636  0.363636  0.181818     48.000000
 -0.363636  0.454545  0.181818     24.000000
 -0.272727  0.454545  0.181818     24.000000
 
 Following cartesian coordinates:
            Coordinates               Weight
  0.000000  0.000000  0.000000      1.000000
 -0.094337  0.094337  0.094337      8.000000
 -0.188674  0.188674  0.188674      8.000000
 -0.283010  0.283010  0.283010      8.000000
 -0.377347  0.377347  0.377347      8.000000
 -0.471684  0.471684  0.471684      8.000000
  0.000000  0.000000  0.188674      6.000000
 -0.094337  0.094337  0.283010     24.000000
 -0.188674  0.188674  0.377347     24.000000
 -0.283010  0.283010  0.471684     24.000000
 -0.377347  0.377347  0.566021     24.000000
  0.566021 -0.566021 -0.377347     24.000000
  0.471684 -0.471684 -0.283010     24.000000
  0.377347 -0.377347 -0.188674     24.000000
  0.283010 -0.283010 -0.094337     24.000000
  0.188674 -0.188674  0.000000     12.000000
  0.000000  0.000000  0.377347      6.000000
 -0.094337  0.094337  0.471684     24.000000
 -0.188674  0.188674  0.566021     24.000000
 -0.283010  0.283010  0.660358     24.000000
  0.660358 -0.660358 -0.283010     24.000000
  0.566021 -0.566021 -0.188674     24.000000
  0.471684 -0.471684 -0.094337     24.000000
  0.377347 -0.377347  0.000000     12.000000
  0.000000  0.000000  0.566021      6.000000
 -0.094337  0.094337  0.660358     24.000000
 -0.188674  0.188674  0.754694     24.000000
  0.754694 -0.754694 -0.188674     24.000000
  0.660358 -0.660358 -0.094337     24.000000
  0.566021 -0.566021  0.000000     12.000000
  0.000000  0.000000  0.754694      6.000000
 -0.094337  0.094337  0.849031     24.000000
  0.849031 -0.849031 -0.094337     24.000000
  0.754694 -0.754694  0.000000     12.000000
  0.000000  0.000000  0.943368      6.000000
  0.943368 -0.943368  0.000000     12.000000
  0.000000  0.188674  0.377347     24.000000
 -0.094337  0.283010  0.471684     48.000000
 -0.188674  0.377347  0.566021     48.000000
  0.754694 -0.566021 -0.377347     48.000000
  0.000000  0.188674  0.566021     24.000000
 -0.094337  0.283010  0.660358     48.000000
  0.849031 -0.660358 -0.283010     48.000000
  0.754694 -0.566021 -0.188674     48.000000
  0.660358 -0.471684 -0.094337     48.000000
  0.566021 -0.377347  0.000000     24.000000
  0.000000  0.188674  0.754694     24.000000
  0.943368 -0.754694 -0.188674     48.000000
  0.849031 -0.660358 -0.094337     48.000000
  0.754694 -0.566021  0.000000     24.000000
  1.037705 -0.849031 -0.094337     24.000000
  0.943368 -0.754694 -0.000000     24.000000
  1.037705 -0.660358 -0.283010     24.000000
  0.943368 -0.566021 -0.188674     48.000000
  1.037705 -0.660358 -0.094337     24.000000
  0.943368 -0.566021  0.000000     24.000000
 
 
 Subroutine IBZKPT_HF returns following result:
 ==============================================
 
 Found   1331 k-points in 1st BZ
 the following   1331 k-points will be used (e.g. in the exchange kernel)
 Following reciprocal coordinates:   # in IRBZ
  0.000000  0.000000  0.000000    0.00075131   1 t-inv F
  0.090909  0.000000  0.000000    0.00075131   2 t-inv F
  0.181818  0.000000  0.000000    0.00075131   3 t-inv F
  0.272727  0.000000  0.000000    0.00075131   4 t-inv F
  0.363636  0.000000  0.000000    0.00075131   5 t-inv F
  0.454545  0.000000  0.000000    0.00075131   6 t-inv F
  0.090909  0.090909  0.000000    0.00075131   7 t-inv F
  0.181818  0.090909  0.000000    0.00075131   8 t-inv F
  0.272727  0.090909  0.000000    0.00075131   9 t-inv F
  0.363636  0.090909  0.000000    0.00075131  10 t-inv F
  0.454545  0.090909  0.000000    0.00075131  11 t-inv F
 -0.454545  0.090909  0.000000    0.00075131  12 t-inv F
 -0.363636  0.090909  0.000000    0.00075131  13 t-inv F
 -0.272727  0.090909  0.000000    0.00075131  14 t-inv F
 -0.181818  0.090909  0.000000    0.00075131  15 t-inv F
 -0.090909  0.090909  0.000000    0.00075131  16 t-inv F
  0.181818  0.181818  0.000000    0.00075131  17 t-inv F
  0.272727  0.181818  0.000000    0.00075131  18 t-inv F
  0.363636  0.181818  0.000000    0.00075131  19 t-inv F
  0.454545  0.181818  0.000000    0.00075131  20 t-inv F
 -0.454545  0.181818  0.000000    0.00075131  21 t-inv F
 -0.363636  0.181818  0.000000    0.00075131  22 t-inv F
 -0.272727  0.181818  0.000000    0.00075131  23 t-inv F
 -0.181818  0.181818  0.000000    0.00075131  24 t-inv F
  0.272727  0.272727  0.000000    0.00075131  25 t-inv F
  0.363636  0.272727  0.000000    0.00075131  26 t-inv F
  0.454545  0.272727  0.000000    0.00075131  27 t-inv F
 -0.454545  0.272727  0.000000    0.00075131  28 t-inv F
 -0.363636  0.272727  0.000000    0.00075131  29 t-inv F
 -0.272727  0.272727  0.000000    0.00075131  30 t-inv F
  0.363636  0.363636  0.000000    0.00075131  31 t-inv F
  0.454545  0.363636  0.000000    0.00075131  32 t-inv F
 -0.454545  0.363636  0.000000    0.00075131  33 t-inv F
 -0.363636  0.363636  0.000000    0.00075131  34 t-inv F
  0.454545  0.454545  0.000000    0.00075131  35 t-inv F
 -0.454545  0.454545  0.000000    0.00075131  36 t-inv F
  0.272727  0.181818  0.090909    0.00075131  37 t-inv F
  0.363636  0.181818  0.090909    0.00075131  38 t-inv F
  0.454545  0.181818  0.090909    0.00075131  39 t-inv F
 -0.454545  0.181818  0.090909    0.00075131  40 t-inv F
  0.363636  0.272727  0.090909    0.00075131  41 t-inv F
  0.454545  0.272727  0.090909    0.00075131  42 t-inv F
 -0.454545  0.272727  0.090909    0.00075131  43 t-inv F
 -0.363636  0.272727  0.090909    0.00075131  44 t-inv F
 -0.272727  0.272727  0.090909    0.00075131  45 t-inv F
 -0.181818  0.272727  0.090909    0.00075131  46 t-inv F
  0.454545  0.363636  0.090909    0.00075131  47 t-inv F
 -0.454545  0.363636  0.090909    0.00075131  48 t-inv F
 -0.363636  0.363636  0.090909    0.00075131  49 t-inv F
 -0.272727  0.363636  0.090909    0.00075131  50 t-inv F
 -0.454545  0.454545  0.090909    0.00075131  51 t-inv F
 -0.363636  0.454545  0.090909    0.00075131  52 t-inv F
 -0.454545  0.363636  0.181818    0.00075131  53 t-inv F
 -0.363636  0.363636  0.181818    0.00075131  54 t-inv F
 -0.363636  0.454545  0.181818    0.00075131  55 t-inv F
 -0.272727  0.454545  0.181818    0.00075131  56 t-inv F
 -0.090909 -0.000000 -0.000000    0.00075131   2 t-inv F
  0.000000  0.090909  0.000000    0.00075131   2 t-inv F
 -0.000000 -0.090909 -0.000000    0.00075131   2 t-inv F
  0.000000  0.000000  0.090909    0.00075131   2 t-inv F
 -0.000000 -0.000000 -0.090909    0.00075131   2 t-inv F
  0.090909  0.090909  0.090909    0.00075131   2 t-inv F
 -0.090909 -0.090909 -0.090909    0.00075131   2 t-inv F
 -0.181818 -0.000000 -0.000000    0.00075131   3 t-inv F
  0.000000  0.181818  0.000000    0.00075131   3 t-inv F
 -0.000000 -0.181818 -0.000000    0.00075131   3 t-inv F
  0.000000  0.000000  0.181818    0.00075131   3 t-inv F
 -0.000000 -0.000000 -0.181818    0.00075131   3 t-inv F
  0.181818  0.181818  0.181818    0.00075131   3 t-inv F
 -0.181818 -0.181818 -0.181818    0.00075131   3 t-inv F
 -0.272727 -0.000000 -0.000000    0.00075131   4 t-inv F
  0.000000  0.272727  0.000000    0.00075131   4 t-inv F
 -0.000000 -0.272727 -0.000000    0.00075131   4 t-inv F
  0.000000  0.000000  0.272727    0.00075131   4 t-inv F
 -0.000000 -0.000000 -0.272727    0.00075131   4 t-inv F
  0.272727  0.272727  0.272727    0.00075131   4 t-inv F
 -0.272727 -0.272727 -0.272727    0.00075131   4 t-inv F
 -0.363636 -0.000000 -0.000000    0.00075131   5 t-inv F
  0.000000  0.363636  0.000000    0.00075131   5 t-inv F
 -0.000000 -0.363636 -0.000000    0.00075131   5 t-inv F
  0.000000  0.000000  0.363636    0.00075131   5 t-inv F
 -0.000000 -0.000000 -0.363636    0.00075131   5 t-inv F
  0.363636  0.363636  0.363636    0.00075131   5 t-inv F
 -0.363636 -0.363636 -0.363636    0.00075131   5 t-inv F
 -0.454545 -0.000000 -0.000000    0.00075131   6 t-inv F
  0.000000  0.454545  0.000000    0.00075131   6 t-inv F
 -0.000000 -0.454545 -0.000000    0.00075131   6 t-inv F
  0.000000  0.000000  0.454545    0.00075131   6 t-inv F
 -0.000000 -0.000000 -0.454545    0.00075131   6 t-inv F
  0.454545  0.454545  0.454545    0.00075131   6 t-inv F
 -0.454545 -0.454545 -0.454545    0.00075131   6 t-inv F
 -0.090909 -0.090909 -0.000000    0.00075131   7 t-inv F
  0.000000  0.090909  0.090909    0.00075131   7 t-inv F
 -0.000000 -0.090909 -0.090909    0.00075131   7 t-inv F
  0.090909  0.000000  0.090909    0.00075131   7 t-inv F
 -0.090909 -0.000000 -0.090909    0.00075131   7 t-inv F
 -0.181818 -0.090909 -0.000000    0.00075131   8 t-inv F
  0.000000  0.181818  0.090909    0.00075131   8 t-inv F
 -0.000000 -0.181818 -0.090909    0.00075131   8 t-inv F
  0.090909  0.000000  0.181818    0.00075131   8 t-inv F
 -0.090909 -0.000000 -0.181818    0.00075131   8 t-inv F
 -0.181818 -0.000000 -0.090909    0.00075131   8 t-inv F
  0.181818  0.000000  0.090909    0.00075131   8 t-inv F
 -0.090909 -0.181818 -0.000000    0.00075131   8 t-inv F
  0.090909  0.181818  0.000000    0.00075131   8 t-inv F
 -0.000000 -0.090909 -0.181818    0.00075131   8 t-inv F
  0.000000  0.090909  0.181818    0.00075131   8 t-inv F
  0.090909  0.090909 -0.090909    0.00075131   8 t-inv F
 -0.090909 -0.090909  0.090909    0.00075131   8 t-inv F
  0.181818  0.090909  0.181818    0.00075131   8 t-inv F
 -0.181818 -0.090909 -0.181818    0.00075131   8 t-inv F
  0.090909 -0.090909 -0.090909    0.00075131   8 t-inv F
 -0.090909  0.090909  0.090909    0.00075131   8 t-inv F
  0.181818  0.181818  0.090909    0.00075131   8 t-inv F
 -0.181818 -0.181818 -0.090909    0.00075131   8 t-inv F
 -0.090909  0.090909 -0.090909    0.00075131   8 t-inv F
  0.090909 -0.090909  0.090909    0.00075131   8 t-inv F
  0.090909  0.181818  0.181818    0.00075131   8 t-inv F
 -0.090909 -0.181818 -0.181818    0.00075131   8 t-inv F
 -0.272727 -0.090909 -0.000000    0.00075131   9 t-inv F
  0.000000  0.272727  0.090909    0.00075131   9 t-inv F
 -0.000000 -0.272727 -0.090909    0.00075131   9 t-inv F
  0.090909  0.000000  0.272727    0.00075131   9 t-inv F
 -0.090909 -0.000000 -0.272727    0.00075131   9 t-inv F
 -0.272727 -0.000000 -0.090909    0.00075131   9 t-inv F
  0.272727  0.000000  0.090909    0.00075131   9 t-inv F
 -0.090909 -0.272727 -0.000000    0.00075131   9 t-inv F
  0.090909  0.272727  0.000000    0.00075131   9 t-inv F
 -0.000000 -0.090909 -0.272727    0.00075131   9 t-inv F
  0.000000  0.090909  0.272727    0.00075131   9 t-inv F
  0.090909  0.090909 -0.181818    0.00075131   9 t-inv F
 -0.090909 -0.090909  0.181818    0.00075131   9 t-inv F
  0.272727  0.181818  0.272727    0.00075131   9 t-inv F
 -0.272727 -0.181818 -0.272727    0.00075131   9 t-inv F
  0.181818 -0.090909 -0.090909    0.00075131   9 t-inv F
 -0.181818  0.090909  0.090909    0.00075131   9 t-inv F
  0.272727  0.272727  0.181818    0.00075131   9 t-inv F
 -0.272727 -0.272727 -0.181818    0.00075131   9 t-inv F
 -0.090909  0.181818 -0.090909    0.00075131   9 t-inv F
  0.090909 -0.181818  0.090909    0.00075131   9 t-inv F
  0.181818  0.272727  0.272727    0.00075131   9 t-inv F
 -0.181818 -0.272727 -0.272727    0.00075131   9 t-inv F
 -0.363636 -0.090909 -0.000000    0.00075131  10 t-inv F
  0.000000  0.363636  0.090909    0.00075131  10 t-inv F
 -0.000000 -0.363636 -0.090909    0.00075131  10 t-inv F
  0.090909  0.000000  0.363636    0.00075131  10 t-inv F
 -0.090909 -0.000000 -0.363636    0.00075131  10 t-inv F
 -0.363636 -0.000000 -0.090909    0.00075131  10 t-inv F
  0.363636  0.000000  0.090909    0.00075131  10 t-inv F
 -0.090909 -0.363636 -0.000000    0.00075131  10 t-inv F
  0.090909  0.363636  0.000000    0.00075131  10 t-inv F
 -0.000000 -0.090909 -0.363636    0.00075131  10 t-inv F
  0.000000  0.090909  0.363636    0.00075131  10 t-inv F
  0.090909  0.090909 -0.272727    0.00075131  10 t-inv F
 -0.090909 -0.090909  0.272727    0.00075131  10 t-inv F
  0.363636  0.272727  0.363636    0.00075131  10 t-inv F
 -0.363636 -0.272727 -0.363636    0.00075131  10 t-inv F
  0.272727 -0.090909 -0.090909    0.00075131  10 t-inv F
 -0.272727  0.090909  0.090909    0.00075131  10 t-inv F
  0.363636  0.363636  0.272727    0.00075131  10 t-inv F
 -0.363636 -0.363636 -0.272727    0.00075131  10 t-inv F
 -0.090909  0.272727 -0.090909    0.00075131  10 t-inv F
  0.090909 -0.272727  0.090909    0.00075131  10 t-inv F
  0.272727  0.363636  0.363636    0.00075131  10 t-inv F
 -0.272727 -0.363636 -0.363636    0.00075131  10 t-inv F
 -0.454545 -0.090909 -0.000000    0.00075131  11 t-inv F
  0.000000  0.454545  0.090909    0.00075131  11 t-inv F
 -0.000000 -0.454545 -0.090909    0.00075131  11 t-inv F
  0.090909  0.000000  0.454545    0.00075131  11 t-inv F
 -0.090909 -0.000000 -0.454545    0.00075131  11 t-inv F
 -0.454545 -0.000000 -0.090909    0.00075131  11 t-inv F
  0.454545  0.000000  0.090909    0.00075131  11 t-inv F
 -0.090909 -0.454545 -0.000000    0.00075131  11 t-inv F
  0.090909  0.454545  0.000000    0.00075131  11 t-inv F
 -0.000000 -0.090909 -0.454545    0.00075131  11 t-inv F
  0.000000  0.090909  0.454545    0.00075131  11 t-inv F
  0.090909  0.090909 -0.363636    0.00075131  11 t-inv F
 -0.090909 -0.090909  0.363636    0.00075131  11 t-inv F
  0.454545  0.363636  0.454545    0.00075131  11 t-inv F
 -0.454545 -0.363636 -0.454545    0.00075131  11 t-inv F
  0.363636 -0.090909 -0.090909    0.00075131  11 t-inv F
 -0.363636  0.090909  0.090909    0.00075131  11 t-inv F
  0.454545  0.454545  0.363636    0.00075131  11 t-inv F
 -0.454545 -0.454545 -0.363636    0.00075131  11 t-inv F
 -0.090909  0.363636 -0.090909    0.00075131  11 t-inv F
  0.090909 -0.363636  0.090909    0.00075131  11 t-inv F
  0.363636  0.454545  0.454545    0.00075131  11 t-inv F
 -0.363636 -0.454545 -0.454545    0.00075131  11 t-inv F
  0.454545 -0.090909 -0.000000    0.00075131  12 t-inv F
  0.000000 -0.454545  0.090909    0.00075131  12 t-inv F
 -0.000000  0.454545 -0.090909    0.00075131  12 t-inv F
  0.090909  0.000000 -0.454545    0.00075131  12 t-inv F
 -0.090909 -0.000000  0.454545    0.00075131  12 t-inv F
  0.454545 -0.000000 -0.090909    0.00075131  12 t-inv F
 -0.454545  0.000000  0.090909    0.00075131  12 t-inv F
 -0.090909  0.454545 -0.000000    0.00075131  12 t-inv F
  0.090909 -0.454545  0.000000    0.00075131  12 t-inv F
 -0.000000 -0.090909  0.454545    0.00075131  12 t-inv F
  0.000000  0.090909 -0.454545    0.00075131  12 t-inv F
  0.090909  0.090909  0.545455    0.00075131  12 t-inv F
 -0.090909 -0.090909 -0.545455    0.00075131  12 t-inv F
 -0.454545 -0.545455 -0.454545    0.00075131  12 t-inv F
  0.454545  0.545455  0.454545    0.00075131  12 t-inv F
 -0.545455 -0.090909 -0.090909    0.00075131  12 t-inv F
  0.545455  0.090909  0.090909    0.00075131  12 t-inv F
 -0.454545 -0.454545 -0.545455    0.00075131  12 t-inv F
  0.454545  0.454545  0.545455    0.00075131  12 t-inv F
 -0.090909 -0.545455 -0.090909    0.00075131  12 t-inv F
  0.090909  0.545455  0.090909    0.00075131  12 t-inv F
 -0.545455 -0.454545 -0.454545    0.00075131  12 t-inv F
  0.545455  0.454545  0.454545    0.00075131  12 t-inv F
  0.363636 -0.090909 -0.000000    0.00075131  13 t-inv F
  0.000000 -0.363636  0.090909    0.00075131  13 t-inv F
 -0.000000  0.363636 -0.090909    0.00075131  13 t-inv F
  0.090909  0.000000 -0.363636    0.00075131  13 t-inv F
 -0.090909 -0.000000  0.363636    0.00075131  13 t-inv F
  0.363636 -0.000000 -0.090909    0.00075131  13 t-inv F
 -0.363636  0.000000  0.090909    0.00075131  13 t-inv F
 -0.090909  0.363636 -0.000000    0.00075131  13 t-inv F
  0.090909 -0.363636  0.000000    0.00075131  13 t-inv F
 -0.000000 -0.090909  0.363636    0.00075131  13 t-inv F
  0.000000  0.090909 -0.363636    0.00075131  13 t-inv F
  0.090909  0.090909  0.454545    0.00075131  13 t-inv F
 -0.090909 -0.090909 -0.454545    0.00075131  13 t-inv F
 -0.363636 -0.454545 -0.363636    0.00075131  13 t-inv F
  0.363636  0.454545  0.363636    0.00075131  13 t-inv F
 -0.454545 -0.090909 -0.090909    0.00075131  13 t-inv F
  0.454545  0.090909  0.090909    0.00075131  13 t-inv F
 -0.363636 -0.363636 -0.454545    0.00075131  13 t-inv F
  0.363636  0.363636  0.454545    0.00075131  13 t-inv F
 -0.090909 -0.454545 -0.090909    0.00075131  13 t-inv F
  0.090909  0.454545  0.090909    0.00075131  13 t-inv F
 -0.454545 -0.363636 -0.363636    0.00075131  13 t-inv F
  0.454545  0.363636  0.363636    0.00075131  13 t-inv F
  0.272727 -0.090909 -0.000000    0.00075131  14 t-inv F
  0.000000 -0.272727  0.090909    0.00075131  14 t-inv F
 -0.000000  0.272727 -0.090909    0.00075131  14 t-inv F
  0.090909  0.000000 -0.272727    0.00075131  14 t-inv F
 -0.090909 -0.000000  0.272727    0.00075131  14 t-inv F
  0.272727 -0.000000 -0.090909    0.00075131  14 t-inv F
 -0.272727  0.000000  0.090909    0.00075131  14 t-inv F
 -0.090909  0.272727 -0.000000    0.00075131  14 t-inv F
  0.090909 -0.272727  0.000000    0.00075131  14 t-inv F
 -0.000000 -0.090909  0.272727    0.00075131  14 t-inv F
  0.000000  0.090909 -0.272727    0.00075131  14 t-inv F
  0.090909  0.090909  0.363636    0.00075131  14 t-inv F
 -0.090909 -0.090909 -0.363636    0.00075131  14 t-inv F
 -0.272727 -0.363636 -0.272727    0.00075131  14 t-inv F
  0.272727  0.363636  0.272727    0.00075131  14 t-inv F
 -0.363636 -0.090909 -0.090909    0.00075131  14 t-inv F
  0.363636  0.090909  0.090909    0.00075131  14 t-inv F
 -0.272727 -0.272727 -0.363636    0.00075131  14 t-inv F
  0.272727  0.272727  0.363636    0.00075131  14 t-inv F
 -0.090909 -0.363636 -0.090909    0.00075131  14 t-inv F
  0.090909  0.363636  0.090909    0.00075131  14 t-inv F
 -0.363636 -0.272727 -0.272727    0.00075131  14 t-inv F
  0.363636  0.272727  0.272727    0.00075131  14 t-inv F
  0.181818 -0.090909 -0.000000    0.00075131  15 t-inv F
  0.000000 -0.181818  0.090909    0.00075131  15 t-inv F
 -0.000000  0.181818 -0.090909    0.00075131  15 t-inv F
  0.090909  0.000000 -0.181818    0.00075131  15 t-inv F
 -0.090909 -0.000000  0.181818    0.00075131  15 t-inv F
  0.181818 -0.000000 -0.090909    0.00075131  15 t-inv F
 -0.181818  0.000000  0.090909    0.00075131  15 t-inv F
 -0.090909  0.181818 -0.000000    0.00075131  15 t-inv F
  0.090909 -0.181818  0.000000    0.00075131  15 t-inv F
 -0.000000 -0.090909  0.181818    0.00075131  15 t-inv F
  0.000000  0.090909 -0.181818    0.00075131  15 t-inv F
  0.090909  0.090909  0.272727    0.00075131  15 t-inv F
 -0.090909 -0.090909 -0.272727    0.00075131  15 t-inv F
 -0.181818 -0.272727 -0.181818    0.00075131  15 t-inv F
  0.181818  0.272727  0.181818    0.00075131  15 t-inv F
 -0.272727 -0.090909 -0.090909    0.00075131  15 t-inv F
  0.272727  0.090909  0.090909    0.00075131  15 t-inv F
 -0.181818 -0.181818 -0.272727    0.00075131  15 t-inv F
  0.181818  0.181818  0.272727    0.00075131  15 t-inv F
 -0.090909 -0.272727 -0.090909    0.00075131  15 t-inv F
  0.090909  0.272727  0.090909    0.00075131  15 t-inv F
 -0.272727 -0.181818 -0.181818    0.00075131  15 t-inv F
  0.272727  0.181818  0.181818    0.00075131  15 t-inv F
  0.090909 -0.090909 -0.000000    0.00075131  16 t-inv F
  0.000000 -0.090909  0.090909    0.00075131  16 t-inv F
 -0.000000  0.090909 -0.090909    0.00075131  16 t-inv F
  0.090909  0.000000 -0.090909    0.00075131  16 t-inv F
 -0.090909 -0.000000  0.090909    0.00075131  16 t-inv F
  0.090909  0.090909  0.181818    0.00075131  16 t-inv F
 -0.090909 -0.090909 -0.181818    0.00075131  16 t-inv F
 -0.090909 -0.181818 -0.090909    0.00075131  16 t-inv F
  0.090909  0.181818  0.090909    0.00075131  16 t-inv F
 -0.181818 -0.090909 -0.090909    0.00075131  16 t-inv F
  0.181818  0.090909  0.090909    0.00075131  16 t-inv F
 -0.181818 -0.181818 -0.000000    0.00075131  17 t-inv F
  0.000000  0.181818  0.181818    0.00075131  17 t-inv F
 -0.000000 -0.181818 -0.181818    0.00075131  17 t-inv F
  0.181818  0.000000  0.181818    0.00075131  17 t-inv F
 -0.181818 -0.000000 -0.181818    0.00075131  17 t-inv F
 -0.272727 -0.181818 -0.000000    0.00075131  18 t-inv F
  0.000000  0.272727  0.181818    0.00075131  18 t-inv F
 -0.000000 -0.272727 -0.181818    0.00075131  18 t-inv F
  0.181818  0.000000  0.272727    0.00075131  18 t-inv F
 -0.181818 -0.000000 -0.272727    0.00075131  18 t-inv F
 -0.272727 -0.000000 -0.181818    0.00075131  18 t-inv F
  0.272727  0.000000  0.181818    0.00075131  18 t-inv F
 -0.181818 -0.272727 -0.000000    0.00075131  18 t-inv F
  0.181818  0.272727  0.000000    0.00075131  18 t-inv F
 -0.000000 -0.181818 -0.272727    0.00075131  18 t-inv F
  0.000000  0.181818  0.272727    0.00075131  18 t-inv F
  0.181818  0.181818 -0.090909    0.00075131  18 t-inv F
 -0.181818 -0.181818  0.090909    0.00075131  18 t-inv F
  0.272727  0.090909  0.272727    0.00075131  18 t-inv F
 -0.272727 -0.090909 -0.272727    0.00075131  18 t-inv F
  0.090909 -0.181818 -0.181818    0.00075131  18 t-inv F
 -0.090909  0.181818  0.181818    0.00075131  18 t-inv F
  0.272727  0.272727  0.090909    0.00075131  18 t-inv F
 -0.272727 -0.272727 -0.090909    0.00075131  18 t-inv F
 -0.181818  0.090909 -0.181818    0.00075131  18 t-inv F
  0.181818 -0.090909  0.181818    0.00075131  18 t-inv F
  0.090909  0.272727  0.272727    0.00075131  18 t-inv F
 -0.090909 -0.272727 -0.272727    0.00075131  18 t-inv F
 -0.363636 -0.181818 -0.000000    0.00075131  19 t-inv F
  0.000000  0.363636  0.181818    0.00075131  19 t-inv F
 -0.000000 -0.363636 -0.181818    0.00075131  19 t-inv F
  0.181818  0.000000  0.363636    0.00075131  19 t-inv F
 -0.181818 -0.000000 -0.363636    0.00075131  19 t-inv F
 -0.363636 -0.000000 -0.181818    0.00075131  19 t-inv F
  0.363636  0.000000  0.181818    0.00075131  19 t-inv F
 -0.181818 -0.363636 -0.000000    0.00075131  19 t-inv F
  0.181818  0.363636  0.000000    0.00075131  19 t-inv F
 -0.000000 -0.181818 -0.363636    0.00075131  19 t-inv F
  0.000000  0.181818  0.363636    0.00075131  19 t-inv F
  0.181818  0.181818 -0.181818    0.00075131  19 t-inv F
 -0.181818 -0.181818  0.181818    0.00075131  19 t-inv F
  0.363636  0.181818  0.363636    0.00075131  19 t-inv F
 -0.363636 -0.181818 -0.363636    0.00075131  19 t-inv F
  0.181818 -0.181818 -0.181818    0.00075131  19 t-inv F
 -0.181818  0.181818  0.181818    0.00075131  19 t-inv F
  0.363636  0.363636  0.181818    0.00075131  19 t-inv F
 -0.363636 -0.363636 -0.181818    0.00075131  19 t-inv F
 -0.181818  0.181818 -0.181818    0.00075131  19 t-inv F
  0.181818 -0.181818  0.181818    0.00075131  19 t-inv F
  0.181818  0.363636  0.363636    0.00075131  19 t-inv F
 -0.181818 -0.363636 -0.363636    0.00075131  19 t-inv F
 -0.454545 -0.181818 -0.000000    0.00075131  20 t-inv F
  0.000000  0.454545  0.181818    0.00075131  20 t-inv F
 -0.000000 -0.454545 -0.181818    0.00075131  20 t-inv F
  0.181818  0.000000  0.454545    0.00075131  20 t-inv F
 -0.181818 -0.000000 -0.454545    0.00075131  20 t-inv F
 -0.454545 -0.000000 -0.181818    0.00075131  20 t-inv F
  0.454545  0.000000  0.181818    0.00075131  20 t-inv F
 -0.181818 -0.454545 -0.000000    0.00075131  20 t-inv F
  0.181818  0.454545  0.000000    0.00075131  20 t-inv F
 -0.000000 -0.181818 -0.454545    0.00075131  20 t-inv F
  0.000000  0.181818  0.454545    0.00075131  20 t-inv F
  0.181818  0.181818 -0.272727    0.00075131  20 t-inv F
 -0.181818 -0.181818  0.272727    0.00075131  20 t-inv F
  0.454545  0.272727  0.454545    0.00075131  20 t-inv F
 -0.454545 -0.272727 -0.454545    0.00075131  20 t-inv F
  0.272727 -0.181818 -0.181818    0.00075131  20 t-inv F
 -0.272727  0.181818  0.181818    0.00075131  20 t-inv F
  0.454545  0.454545  0.272727    0.00075131  20 t-inv F
 -0.454545 -0.454545 -0.272727    0.00075131  20 t-inv F
 -0.181818  0.272727 -0.181818    0.00075131  20 t-inv F
  0.181818 -0.272727  0.181818    0.00075131  20 t-inv F
  0.272727  0.454545  0.454545    0.00075131  20 t-inv F
 -0.272727 -0.454545 -0.454545    0.00075131  20 t-inv F
  0.454545 -0.181818 -0.000000    0.00075131  21 t-inv F
  0.000000 -0.454545  0.181818    0.00075131  21 t-inv F
 -0.000000  0.454545 -0.181818    0.00075131  21 t-inv F
  0.181818  0.000000 -0.454545    0.00075131  21 t-inv F
 -0.181818 -0.000000  0.454545    0.00075131  21 t-inv F
  0.454545 -0.000000 -0.181818    0.00075131  21 t-inv F
 -0.454545  0.000000  0.181818    0.00075131  21 t-inv F
 -0.181818  0.454545 -0.000000    0.00075131  21 t-inv F
  0.181818 -0.454545  0.000000    0.00075131  21 t-inv F
 -0.000000 -0.181818  0.454545    0.00075131  21 t-inv F
  0.000000  0.181818 -0.454545    0.00075131  21 t-inv F
  0.181818  0.181818  0.636364    0.00075131  21 t-inv F
 -0.181818 -0.181818 -0.636364    0.00075131  21 t-inv F
 -0.454545 -0.636364 -0.454545    0.00075131  21 t-inv F
  0.454545  0.636364  0.454545    0.00075131  21 t-inv F
 -0.636364 -0.181818 -0.181818    0.00075131  21 t-inv F
  0.636364  0.181818  0.181818    0.00075131  21 t-inv F
 -0.454545 -0.454545 -0.636364    0.00075131  21 t-inv F
  0.454545  0.454545  0.636364    0.00075131  21 t-inv F
 -0.181818 -0.636364 -0.181818    0.00075131  21 t-inv F
  0.181818  0.636364  0.181818    0.00075131  21 t-inv F
 -0.636364 -0.454545 -0.454545    0.00075131  21 t-inv F
  0.636364  0.454545  0.454545    0.00075131  21 t-inv F
  0.363636 -0.181818 -0.000000    0.00075131  22 t-inv F
  0.000000 -0.363636  0.181818    0.00075131  22 t-inv F
 -0.000000  0.363636 -0.181818    0.00075131  22 t-inv F
  0.181818  0.000000 -0.363636    0.00075131  22 t-inv F
 -0.181818 -0.000000  0.363636    0.00075131  22 t-inv F
  0.363636 -0.000000 -0.181818    0.00075131  22 t-inv F
 -0.363636  0.000000  0.181818    0.00075131  22 t-inv F
 -0.181818  0.363636 -0.000000    0.00075131  22 t-inv F
  0.181818 -0.363636  0.000000    0.00075131  22 t-inv F
 -0.000000 -0.181818  0.363636    0.00075131  22 t-inv F
  0.000000  0.181818 -0.363636    0.00075131  22 t-inv F
  0.181818  0.181818  0.545455    0.00075131  22 t-inv F
 -0.181818 -0.181818 -0.545455    0.00075131  22 t-inv F
 -0.363636 -0.545455 -0.363636    0.00075131  22 t-inv F
  0.363636  0.545455  0.363636    0.00075131  22 t-inv F
 -0.545455 -0.181818 -0.181818    0.00075131  22 t-inv F
  0.545455  0.181818  0.181818    0.00075131  22 t-inv F
 -0.363636 -0.363636 -0.545455    0.00075131  22 t-inv F
  0.363636  0.363636  0.545455    0.00075131  22 t-inv F
 -0.181818 -0.545455 -0.181818    0.00075131  22 t-inv F
  0.181818  0.545455  0.181818    0.00075131  22 t-inv F
 -0.545455 -0.363636 -0.363636    0.00075131  22 t-inv F
  0.545455  0.363636  0.363636    0.00075131  22 t-inv F
  0.272727 -0.181818 -0.000000    0.00075131  23 t-inv F
  0.000000 -0.272727  0.181818    0.00075131  23 t-inv F
 -0.000000  0.272727 -0.181818    0.00075131  23 t-inv F
  0.181818  0.000000 -0.272727    0.00075131  23 t-inv F
 -0.181818 -0.000000  0.272727    0.00075131  23 t-inv F
  0.272727 -0.000000 -0.181818    0.00075131  23 t-inv F
 -0.272727  0.000000  0.181818    0.00075131  23 t-inv F
 -0.181818  0.272727 -0.000000    0.00075131  23 t-inv F
  0.181818 -0.272727  0.000000    0.00075131  23 t-inv F
 -0.000000 -0.181818  0.272727    0.00075131  23 t-inv F
  0.000000  0.181818 -0.272727    0.00075131  23 t-inv F
  0.181818  0.181818  0.454545    0.00075131  23 t-inv F
 -0.181818 -0.181818 -0.454545    0.00075131  23 t-inv F
 -0.272727 -0.454545 -0.272727    0.00075131  23 t-inv F
  0.272727  0.454545  0.272727    0.00075131  23 t-inv F
 -0.454545 -0.181818 -0.181818    0.00075131  23 t-inv F
  0.454545  0.181818  0.181818    0.00075131  23 t-inv F
 -0.272727 -0.272727 -0.454545    0.00075131  23 t-inv F
  0.272727  0.272727  0.454545    0.00075131  23 t-inv F
 -0.181818 -0.454545 -0.181818    0.00075131  23 t-inv F
  0.181818  0.454545  0.181818    0.00075131  23 t-inv F
 -0.454545 -0.272727 -0.272727    0.00075131  23 t-inv F
  0.454545  0.272727  0.272727    0.00075131  23 t-inv F
  0.181818 -0.181818 -0.000000    0.00075131  24 t-inv F
  0.000000 -0.181818  0.181818    0.00075131  24 t-inv F
 -0.000000  0.181818 -0.181818    0.00075131  24 t-inv F
  0.181818  0.000000 -0.181818    0.00075131  24 t-inv F
 -0.181818 -0.000000  0.181818    0.00075131  24 t-inv F
  0.181818  0.181818  0.363636    0.00075131  24 t-inv F
 -0.181818 -0.181818 -0.363636    0.00075131  24 t-inv F
 -0.181818 -0.363636 -0.181818    0.00075131  24 t-inv F
  0.181818  0.363636  0.181818    0.00075131  24 t-inv F
 -0.363636 -0.181818 -0.181818    0.00075131  24 t-inv F
  0.363636  0.181818  0.181818    0.00075131  24 t-inv F
 -0.272727 -0.272727 -0.000000    0.00075131  25 t-inv F
  0.000000  0.272727  0.272727    0.00075131  25 t-inv F
 -0.000000 -0.272727 -0.272727    0.00075131  25 t-inv F
  0.272727  0.000000  0.272727    0.00075131  25 t-inv F
 -0.272727 -0.000000 -0.272727    0.00075131  25 t-inv F
 -0.363636 -0.272727 -0.000000    0.00075131  26 t-inv F
  0.000000  0.363636  0.272727    0.00075131  26 t-inv F
 -0.000000 -0.363636 -0.272727    0.00075131  26 t-inv F
  0.272727  0.000000  0.363636    0.00075131  26 t-inv F
 -0.272727 -0.000000 -0.363636    0.00075131  26 t-inv F
 -0.363636 -0.000000 -0.272727    0.00075131  26 t-inv F
  0.363636  0.000000  0.272727    0.00075131  26 t-inv F
 -0.272727 -0.363636 -0.000000    0.00075131  26 t-inv F
  0.272727  0.363636  0.000000    0.00075131  26 t-inv F
 -0.000000 -0.272727 -0.363636    0.00075131  26 t-inv F
  0.000000  0.272727  0.363636    0.00075131  26 t-inv F
  0.272727  0.272727 -0.090909    0.00075131  26 t-inv F
 -0.272727 -0.272727  0.090909    0.00075131  26 t-inv F
  0.363636  0.090909  0.363636    0.00075131  26 t-inv F
 -0.363636 -0.090909 -0.363636    0.00075131  26 t-inv F
  0.090909 -0.272727 -0.272727    0.00075131  26 t-inv F
 -0.090909  0.272727  0.272727    0.00075131  26 t-inv F
  0.363636  0.363636  0.090909    0.00075131  26 t-inv F
 -0.363636 -0.363636 -0.090909    0.00075131  26 t-inv F
 -0.272727  0.090909 -0.272727    0.00075131  26 t-inv F
  0.272727 -0.090909  0.272727    0.00075131  26 t-inv F
  0.090909  0.363636  0.363636    0.00075131  26 t-inv F
 -0.090909 -0.363636 -0.363636    0.00075131  26 t-inv F
 -0.454545 -0.272727 -0.000000    0.00075131  27 t-inv F
  0.000000  0.454545  0.272727    0.00075131  27 t-inv F
 -0.000000 -0.454545 -0.272727    0.00075131  27 t-inv F
  0.272727  0.000000  0.454545    0.00075131  27 t-inv F
 -0.272727 -0.000000 -0.454545    0.00075131  27 t-inv F
 -0.454545 -0.000000 -0.272727    0.00075131  27 t-inv F
  0.454545  0.000000  0.272727    0.00075131  27 t-inv F
 -0.272727 -0.454545 -0.000000    0.00075131  27 t-inv F
  0.272727  0.454545  0.000000    0.00075131  27 t-inv F
 -0.000000 -0.272727 -0.454545    0.00075131  27 t-inv F
  0.000000  0.272727  0.454545    0.00075131  27 t-inv F
  0.272727  0.272727 -0.181818    0.00075131  27 t-inv F
 -0.272727 -0.272727  0.181818    0.00075131  27 t-inv F
  0.454545  0.181818  0.454545    0.00075131  27 t-inv F
 -0.454545 -0.181818 -0.454545    0.00075131  27 t-inv F
  0.181818 -0.272727 -0.272727    0.00075131  27 t-inv F
 -0.181818  0.272727  0.272727    0.00075131  27 t-inv F
  0.454545  0.454545  0.181818    0.00075131  27 t-inv F
 -0.454545 -0.454545 -0.181818    0.00075131  27 t-inv F
 -0.272727  0.181818 -0.272727    0.00075131  27 t-inv F
  0.272727 -0.181818  0.272727    0.00075131  27 t-inv F
  0.181818  0.454545  0.454545    0.00075131  27 t-inv F
 -0.181818 -0.454545 -0.454545    0.00075131  27 t-inv F
  0.454545 -0.272727 -0.000000    0.00075131  28 t-inv F
  0.000000 -0.454545  0.272727    0.00075131  28 t-inv F
 -0.000000  0.454545 -0.272727    0.00075131  28 t-inv F
  0.272727  0.000000 -0.454545    0.00075131  28 t-inv F
 -0.272727 -0.000000  0.454545    0.00075131  28 t-inv F
  0.454545 -0.000000 -0.272727    0.00075131  28 t-inv F
 -0.454545  0.000000  0.272727    0.00075131  28 t-inv F
 -0.272727  0.454545 -0.000000    0.00075131  28 t-inv F
  0.272727 -0.454545  0.000000    0.00075131  28 t-inv F
 -0.000000 -0.272727  0.454545    0.00075131  28 t-inv F
  0.000000  0.272727 -0.454545    0.00075131  28 t-inv F
  0.272727  0.272727  0.727273    0.00075131  28 t-inv F
 -0.272727 -0.272727 -0.727273    0.00075131  28 t-inv F
 -0.454545 -0.727273 -0.454545    0.00075131  28 t-inv F
  0.454545  0.727273  0.454545    0.00075131  28 t-inv F
 -0.727273 -0.272727 -0.272727    0.00075131  28 t-inv F
  0.727273  0.272727  0.272727    0.00075131  28 t-inv F
 -0.454545 -0.454545 -0.727273    0.00075131  28 t-inv F
  0.454545  0.454545  0.727273    0.00075131  28 t-inv F
 -0.272727 -0.727273 -0.272727    0.00075131  28 t-inv F
  0.272727  0.727273  0.272727    0.00075131  28 t-inv F
 -0.727273 -0.454545 -0.454545    0.00075131  28 t-inv F
  0.727273  0.454545  0.454545    0.00075131  28 t-inv F
  0.363636 -0.272727 -0.000000    0.00075131  29 t-inv F
  0.000000 -0.363636  0.272727    0.00075131  29 t-inv F
 -0.000000  0.363636 -0.272727    0.00075131  29 t-inv F
  0.272727  0.000000 -0.363636    0.00075131  29 t-inv F
 -0.272727 -0.000000  0.363636    0.00075131  29 t-inv F
  0.363636 -0.000000 -0.272727    0.00075131  29 t-inv F
 -0.363636  0.000000  0.272727    0.00075131  29 t-inv F
 -0.272727  0.363636 -0.000000    0.00075131  29 t-inv F
  0.272727 -0.363636  0.000000    0.00075131  29 t-inv F
 -0.000000 -0.272727  0.363636    0.00075131  29 t-inv F
  0.000000  0.272727 -0.363636    0.00075131  29 t-inv F
  0.272727  0.272727  0.636364    0.00075131  29 t-inv F
 -0.272727 -0.272727 -0.636364    0.00075131  29 t-inv F
 -0.363636 -0.636364 -0.363636    0.00075131  29 t-inv F
  0.363636  0.636364  0.363636    0.00075131  29 t-inv F
 -0.636364 -0.272727 -0.272727    0.00075131  29 t-inv F
  0.636364  0.272727  0.272727    0.00075131  29 t-inv F
 -0.363636 -0.363636 -0.636364    0.00075131  29 t-inv F
  0.363636  0.363636  0.636364    0.00075131  29 t-inv F
 -0.272727 -0.636364 -0.272727    0.00075131  29 t-inv F
  0.272727  0.636364  0.272727    0.00075131  29 t-inv F
 -0.636364 -0.363636 -0.363636    0.00075131  29 t-inv F
  0.636364  0.363636  0.363636    0.00075131  29 t-inv F
  0.272727 -0.272727 -0.000000    0.00075131  30 t-inv F
  0.000000 -0.272727  0.272727    0.00075131  30 t-inv F
 -0.000000  0.272727 -0.272727    0.00075131  30 t-inv F
  0.272727  0.000000 -0.272727    0.00075131  30 t-inv F
 -0.272727 -0.000000  0.272727    0.00075131  30 t-inv F
  0.272727  0.272727  0.545455    0.00075131  30 t-inv F
 -0.272727 -0.272727 -0.545455    0.00075131  30 t-inv F
 -0.272727 -0.545455 -0.272727    0.00075131  30 t-inv F
  0.272727  0.545455  0.272727    0.00075131  30 t-inv F
 -0.545455 -0.272727 -0.272727    0.00075131  30 t-inv F
  0.545455  0.272727  0.272727    0.00075131  30 t-inv F
 -0.363636 -0.363636 -0.000000    0.00075131  31 t-inv F
  0.000000  0.363636  0.363636    0.00075131  31 t-inv F
 -0.000000 -0.363636 -0.363636    0.00075131  31 t-inv F
  0.363636  0.000000  0.363636    0.00075131  31 t-inv F
 -0.363636 -0.000000 -0.363636    0.00075131  31 t-inv F
 -0.454545 -0.363636 -0.000000    0.00075131  32 t-inv F
  0.000000  0.454545  0.363636    0.00075131  32 t-inv F
 -0.000000 -0.454545 -0.363636    0.00075131  32 t-inv F
  0.363636  0.000000  0.454545    0.00075131  32 t-inv F
 -0.363636 -0.000000 -0.454545    0.00075131  32 t-inv F
 -0.454545 -0.000000 -0.363636    0.00075131  32 t-inv F
  0.454545  0.000000  0.363636    0.00075131  32 t-inv F
 -0.363636 -0.454545 -0.000000    0.00075131  32 t-inv F
  0.363636  0.454545  0.000000    0.00075131  32 t-inv F
 -0.000000 -0.363636 -0.454545    0.00075131  32 t-inv F
  0.000000  0.363636  0.454545    0.00075131  32 t-inv F
  0.363636  0.363636 -0.090909    0.00075131  32 t-inv F
 -0.363636 -0.363636  0.090909    0.00075131  32 t-inv F
  0.454545  0.090909  0.454545    0.00075131  32 t-inv F
 -0.454545 -0.090909 -0.454545    0.00075131  32 t-inv F
  0.090909 -0.363636 -0.363636    0.00075131  32 t-inv F
 -0.090909  0.363636  0.363636    0.00075131  32 t-inv F
  0.454545  0.454545  0.090909    0.00075131  32 t-inv F
 -0.454545 -0.454545 -0.090909    0.00075131  32 t-inv F
 -0.363636  0.090909 -0.363636    0.00075131  32 t-inv F
  0.363636 -0.090909  0.363636    0.00075131  32 t-inv F
  0.090909  0.454545  0.454545    0.00075131  32 t-inv F
 -0.090909 -0.454545 -0.454545    0.00075131  32 t-inv F
  0.454545 -0.363636 -0.000000    0.00075131  33 t-inv F
  0.000000 -0.454545  0.363636    0.00075131  33 t-inv F
 -0.000000  0.454545 -0.363636    0.00075131  33 t-inv F
  0.363636  0.000000 -0.454545    0.00075131  33 t-inv F
 -0.363636 -0.000000  0.454545    0.00075131  33 t-inv F
  0.454545 -0.000000 -0.363636    0.00075131  33 t-inv F
 -0.454545  0.000000  0.363636    0.00075131  33 t-inv F
 -0.363636  0.454545 -0.000000    0.00075131  33 t-inv F
  0.363636 -0.454545  0.000000    0.00075131  33 t-inv F
 -0.000000 -0.363636  0.454545    0.00075131  33 t-inv F
  0.000000  0.363636 -0.454545    0.00075131  33 t-inv F
  0.363636  0.363636  0.818182    0.00075131  33 t-inv F
 -0.363636 -0.363636 -0.818182    0.00075131  33 t-inv F
 -0.454545 -0.818182 -0.454545    0.00075131  33 t-inv F
  0.454545  0.818182  0.454545    0.00075131  33 t-inv F
 -0.818182 -0.363636 -0.363636    0.00075131  33 t-inv F
  0.818182  0.363636  0.363636    0.00075131  33 t-inv F
 -0.454545 -0.454545 -0.818182    0.00075131  33 t-inv F
  0.454545  0.454545  0.818182    0.00075131  33 t-inv F
 -0.363636 -0.818182 -0.363636    0.00075131  33 t-inv F
  0.363636  0.818182  0.363636    0.00075131  33 t-inv F
 -0.818182 -0.454545 -0.454545    0.00075131  33 t-inv F
  0.818182  0.454545  0.454545    0.00075131  33 t-inv F
  0.363636 -0.363636 -0.000000    0.00075131  34 t-inv F
  0.000000 -0.363636  0.363636    0.00075131  34 t-inv F
 -0.000000  0.363636 -0.363636    0.00075131  34 t-inv F
  0.363636  0.000000 -0.363636    0.00075131  34 t-inv F
 -0.363636 -0.000000  0.363636    0.00075131  34 t-inv F
  0.363636  0.363636  0.727273    0.00075131  34 t-inv F
 -0.363636 -0.363636 -0.727273    0.00075131  34 t-inv F
 -0.363636 -0.727273 -0.363636    0.00075131  34 t-inv F
  0.363636  0.727273  0.363636    0.00075131  34 t-inv F
 -0.727273 -0.363636 -0.363636    0.00075131  34 t-inv F
  0.727273  0.363636  0.363636    0.00075131  34 t-inv F
 -0.454545 -0.454545 -0.000000    0.00075131  35 t-inv F
  0.000000  0.454545  0.454545    0.00075131  35 t-inv F
 -0.000000 -0.454545 -0.454545    0.00075131  35 t-inv F
  0.454545  0.000000  0.454545    0.00075131  35 t-inv F
 -0.454545 -0.000000 -0.454545    0.00075131  35 t-inv F
  0.454545 -0.454545 -0.000000    0.00075131  36 t-inv F
  0.000000 -0.454545  0.454545    0.00075131  36 t-inv F
 -0.000000  0.454545 -0.454545    0.00075131  36 t-inv F
  0.454545  0.000000 -0.454545    0.00075131  36 t-inv F
 -0.454545 -0.000000  0.454545    0.00075131  36 t-inv F
  0.454545  0.454545  0.909091    0.00075131  36 t-inv F
 -0.454545 -0.454545 -0.909091    0.00075131  36 t-inv F
 -0.454545 -0.909091 -0.454545    0.00075131  36 t-inv F
  0.454545  0.909091  0.454545    0.00075131  36 t-inv F
 -0.909091 -0.454545 -0.454545    0.00075131  36 t-inv F
  0.909091  0.454545  0.454545    0.00075131  36 t-inv F
 -0.272727 -0.181818 -0.090909    0.00075131  37 t-inv F
  0.090909  0.272727  0.181818    0.00075131  37 t-inv F
 -0.090909 -0.272727 -0.181818    0.00075131  37 t-inv F
  0.181818  0.090909  0.272727    0.00075131  37 t-inv F
 -0.181818 -0.090909 -0.272727    0.00075131  37 t-inv F
 -0.272727 -0.090909 -0.181818    0.00075131  37 t-inv F
  0.272727  0.090909  0.181818    0.00075131  37 t-inv F
 -0.181818 -0.272727 -0.090909    0.00075131  37 t-inv F
  0.181818  0.272727  0.090909    0.00075131  37 t-inv F
 -0.090909 -0.181818 -0.272727    0.00075131  37 t-inv F
  0.090909  0.181818  0.272727    0.00075131  37 t-inv F
  0.181818  0.090909 -0.090909    0.00075131  37 t-inv F
 -0.181818 -0.090909  0.090909    0.00075131  37 t-inv F
  0.090909 -0.181818 -0.090909    0.00075131  37 t-inv F
 -0.090909  0.181818  0.090909    0.00075131  37 t-inv F
  0.090909  0.181818 -0.090909    0.00075131  37 t-inv F
 -0.090909 -0.181818  0.090909    0.00075131  37 t-inv F
  0.090909 -0.090909 -0.181818    0.00075131  37 t-inv F
 -0.090909  0.090909  0.181818    0.00075131  37 t-inv F
 -0.090909  0.090909 -0.181818    0.00075131  37 t-inv F
  0.090909 -0.090909  0.181818    0.00075131  37 t-inv F
 -0.181818  0.090909 -0.090909    0.00075131  37 t-inv F
  0.181818 -0.090909  0.090909    0.00075131  37 t-inv F
 -0.363636 -0.181818 -0.090909    0.00075131  38 t-inv F
  0.090909  0.363636  0.181818    0.00075131  38 t-inv F
 -0.090909 -0.363636 -0.181818    0.00075131  38 t-inv F
  0.181818  0.090909  0.363636    0.00075131  38 t-inv F
 -0.181818 -0.090909 -0.363636    0.00075131  38 t-inv F
 -0.363636 -0.090909 -0.181818    0.00075131  38 t-inv F
  0.363636  0.090909  0.181818    0.00075131  38 t-inv F
 -0.181818 -0.363636 -0.090909    0.00075131  38 t-inv F
  0.181818  0.363636  0.090909    0.00075131  38 t-inv F
 -0.090909 -0.181818 -0.363636    0.00075131  38 t-inv F
  0.090909  0.181818  0.363636    0.00075131  38 t-inv F
  0.181818  0.090909 -0.181818    0.00075131  38 t-inv F
 -0.181818 -0.090909  0.181818    0.00075131  38 t-inv F
  0.363636  0.181818  0.272727    0.00075131  38 t-inv F
 -0.363636 -0.181818 -0.272727    0.00075131  38 t-inv F
  0.090909 -0.272727 -0.090909    0.00075131  38 t-inv F
 -0.090909  0.272727  0.090909    0.00075131  38 t-inv F
  0.090909  0.272727 -0.090909    0.00075131  38 t-inv F
 -0.090909 -0.272727  0.090909    0.00075131  38 t-inv F
  0.181818 -0.090909 -0.181818    0.00075131  38 t-inv F
 -0.181818  0.090909  0.181818    0.00075131  38 t-inv F
 -0.272727 -0.181818 -0.363636    0.00075131  38 t-inv F
  0.272727  0.181818  0.363636    0.00075131  38 t-inv F
  0.272727  0.363636  0.181818    0.00075131  38 t-inv F
 -0.272727 -0.363636 -0.181818    0.00075131  38 t-inv F
 -0.090909  0.090909 -0.272727    0.00075131  38 t-inv F
  0.090909 -0.090909  0.272727    0.00075131  38 t-inv F
 -0.181818  0.181818  0.090909    0.00075131  38 t-inv F
  0.181818 -0.181818 -0.090909    0.00075131  38 t-inv F
 -0.090909  0.090909  0.272727    0.00075131  38 t-inv F
  0.090909 -0.090909 -0.272727    0.00075131  38 t-inv F
 -0.181818  0.181818 -0.090909    0.00075131  38 t-inv F
  0.181818 -0.181818  0.090909    0.00075131  38 t-inv F
 -0.363636 -0.272727 -0.181818    0.00075131  38 t-inv F
  0.363636  0.272727  0.181818    0.00075131  38 t-inv F
  0.181818  0.272727  0.363636    0.00075131  38 t-inv F
 -0.181818 -0.272727 -0.363636    0.00075131  38 t-inv F
 -0.272727 -0.090909  0.090909    0.00075131  38 t-inv F
  0.272727  0.090909 -0.090909    0.00075131  38 t-inv F
  0.090909 -0.181818  0.181818    0.00075131  38 t-inv F
 -0.090909  0.181818 -0.181818    0.00075131  38 t-inv F
  0.272727 -0.090909  0.090909    0.00075131  38 t-inv F
 -0.272727  0.090909 -0.090909    0.00075131  38 t-inv F
 -0.090909 -0.181818  0.181818    0.00075131  38 t-inv F
  0.090909  0.181818 -0.181818    0.00075131  38 t-inv F
 -0.181818 -0.363636 -0.272727    0.00075131  38 t-inv F
  0.181818  0.363636  0.272727    0.00075131  38 t-inv F
 -0.454545 -0.181818 -0.090909    0.00075131  39 t-inv F
  0.090909  0.454545  0.181818    0.00075131  39 t-inv F
 -0.090909 -0.454545 -0.181818    0.00075131  39 t-inv F
  0.181818  0.090909  0.454545    0.00075131  39 t-inv F
 -0.181818 -0.090909 -0.454545    0.00075131  39 t-inv F
 -0.454545 -0.090909 -0.181818    0.00075131  39 t-inv F
  0.454545  0.090909  0.181818    0.00075131  39 t-inv F
 -0.181818 -0.454545 -0.090909    0.00075131  39 t-inv F
  0.181818  0.454545  0.090909    0.00075131  39 t-inv F
 -0.090909 -0.181818 -0.454545    0.00075131  39 t-inv F
  0.090909  0.181818  0.454545    0.00075131  39 t-inv F
  0.181818  0.090909 -0.272727    0.00075131  39 t-inv F
 -0.181818 -0.090909  0.272727    0.00075131  39 t-inv F
  0.454545  0.272727  0.363636    0.00075131  39 t-inv F
 -0.454545 -0.272727 -0.363636    0.00075131  39 t-inv F
  0.090909 -0.363636 -0.090909    0.00075131  39 t-inv F
 -0.090909  0.363636  0.090909    0.00075131  39 t-inv F
  0.090909  0.363636 -0.090909    0.00075131  39 t-inv F
 -0.090909 -0.363636  0.090909    0.00075131  39 t-inv F
  0.272727 -0.090909 -0.181818    0.00075131  39 t-inv F
 -0.272727  0.090909  0.181818    0.00075131  39 t-inv F
 -0.363636 -0.272727 -0.454545    0.00075131  39 t-inv F
  0.363636  0.272727  0.454545    0.00075131  39 t-inv F
  0.363636  0.454545  0.272727    0.00075131  39 t-inv F
 -0.363636 -0.454545 -0.272727    0.00075131  39 t-inv F
 -0.090909  0.090909 -0.363636    0.00075131  39 t-inv F
  0.090909 -0.090909  0.363636    0.00075131  39 t-inv F
 -0.272727  0.181818  0.090909    0.00075131  39 t-inv F
  0.272727 -0.181818 -0.090909    0.00075131  39 t-inv F
 -0.090909  0.090909  0.363636    0.00075131  39 t-inv F
  0.090909 -0.090909 -0.363636    0.00075131  39 t-inv F
 -0.181818  0.272727 -0.090909    0.00075131  39 t-inv F
  0.181818 -0.272727  0.090909    0.00075131  39 t-inv F
 -0.454545 -0.363636 -0.272727    0.00075131  39 t-inv F
  0.454545  0.363636  0.272727    0.00075131  39 t-inv F
  0.272727  0.363636  0.454545    0.00075131  39 t-inv F
 -0.272727 -0.363636 -0.454545    0.00075131  39 t-inv F
 -0.363636 -0.090909  0.090909    0.00075131  39 t-inv F
  0.363636  0.090909 -0.090909    0.00075131  39 t-inv F
  0.090909 -0.272727  0.181818    0.00075131  39 t-inv F
 -0.090909  0.272727 -0.181818    0.00075131  39 t-inv F
  0.363636 -0.090909  0.090909    0.00075131  39 t-inv F
 -0.363636  0.090909 -0.090909    0.00075131  39 t-inv F
 -0.090909 -0.181818  0.272727    0.00075131  39 t-inv F
  0.090909  0.181818 -0.272727    0.00075131  39 t-inv F
 -0.272727 -0.454545 -0.363636    0.00075131  39 t-inv F
  0.272727  0.454545  0.363636    0.00075131  39 t-inv F
  0.454545 -0.181818 -0.090909    0.00075131  40 t-inv F
  0.090909 -0.454545  0.181818    0.00075131  40 t-inv F
 -0.090909  0.454545 -0.181818    0.00075131  40 t-inv F
  0.181818  0.090909 -0.454545    0.00075131  40 t-inv F
 -0.181818 -0.090909  0.454545    0.00075131  40 t-inv F
  0.454545 -0.090909 -0.181818    0.00075131  40 t-inv F
 -0.454545  0.090909  0.181818    0.00075131  40 t-inv F
 -0.181818  0.454545 -0.090909    0.00075131  40 t-inv F
  0.181818 -0.454545  0.090909    0.00075131  40 t-inv F
 -0.090909 -0.181818  0.454545    0.00075131  40 t-inv F
  0.090909  0.181818 -0.454545    0.00075131  40 t-inv F
  0.181818  0.090909  0.636364    0.00075131  40 t-inv F
 -0.181818 -0.090909 -0.636364    0.00075131  40 t-inv F
 -0.454545 -0.636364 -0.545455    0.00075131  40 t-inv F
  0.454545  0.636364  0.545455    0.00075131  40 t-inv F
  0.090909  0.545455 -0.090909    0.00075131  40 t-inv F
 -0.090909 -0.545455  0.090909    0.00075131  40 t-inv F
  0.090909 -0.545455 -0.090909    0.00075131  40 t-inv F
 -0.090909  0.545455  0.090909    0.00075131  40 t-inv F
 -0.636364 -0.090909 -0.181818    0.00075131  40 t-inv F
  0.636364  0.090909  0.181818    0.00075131  40 t-inv F
  0.545455  0.636364  0.454545    0.00075131  40 t-inv F
 -0.545455 -0.636364 -0.454545    0.00075131  40 t-inv F
 -0.545455 -0.454545 -0.636364    0.00075131  40 t-inv F
  0.545455  0.454545  0.636364    0.00075131  40 t-inv F
 -0.090909  0.090909  0.545455    0.00075131  40 t-inv F
  0.090909 -0.090909 -0.545455    0.00075131  40 t-inv F
  0.636364  0.181818  0.090909    0.00075131  40 t-inv F
 -0.636364 -0.181818 -0.090909    0.00075131  40 t-inv F
 -0.090909  0.090909 -0.545455    0.00075131  40 t-inv F
  0.090909 -0.090909  0.545455    0.00075131  40 t-inv F
 -0.181818 -0.636364 -0.090909    0.00075131  40 t-inv F
  0.181818  0.636364  0.090909    0.00075131  40 t-inv F
  0.454545  0.545455  0.636364    0.00075131  40 t-inv F
 -0.454545 -0.545455 -0.636364    0.00075131  40 t-inv F
 -0.636364 -0.545455 -0.454545    0.00075131  40 t-inv F
  0.636364  0.545455  0.454545    0.00075131  40 t-inv F
  0.545455 -0.090909  0.090909    0.00075131  40 t-inv F
 -0.545455  0.090909 -0.090909    0.00075131  40 t-inv F
  0.090909  0.636364  0.181818    0.00075131  40 t-inv F
 -0.090909 -0.636364 -0.181818    0.00075131  40 t-inv F
 -0.545455 -0.090909  0.090909    0.00075131  40 t-inv F
  0.545455  0.090909 -0.090909    0.00075131  40 t-inv F
 -0.090909 -0.181818 -0.636364    0.00075131  40 t-inv F
  0.090909  0.181818  0.636364    0.00075131  40 t-inv F
  0.636364  0.454545  0.545455    0.00075131  40 t-inv F
 -0.636364 -0.454545 -0.545455    0.00075131  40 t-inv F
 -0.363636 -0.272727 -0.090909    0.00075131  41 t-inv F
  0.090909  0.363636  0.272727    0.00075131  41 t-inv F
 -0.090909 -0.363636 -0.272727    0.00075131  41 t-inv F
  0.272727  0.090909  0.363636    0.00075131  41 t-inv F
 -0.272727 -0.090909 -0.363636    0.00075131  41 t-inv F
 -0.363636 -0.090909 -0.272727    0.00075131  41 t-inv F
  0.363636  0.090909  0.272727    0.00075131  41 t-inv F
 -0.272727 -0.363636 -0.090909    0.00075131  41 t-inv F
  0.272727  0.363636  0.090909    0.00075131  41 t-inv F
 -0.090909 -0.272727 -0.363636    0.00075131  41 t-inv F
  0.090909  0.272727  0.363636    0.00075131  41 t-inv F
  0.272727  0.181818 -0.090909    0.00075131  41 t-inv F
 -0.272727 -0.181818  0.090909    0.00075131  41 t-inv F
  0.090909 -0.272727 -0.181818    0.00075131  41 t-inv F
 -0.090909  0.272727  0.181818    0.00075131  41 t-inv F
  0.181818  0.272727 -0.090909    0.00075131  41 t-inv F
 -0.181818 -0.272727  0.090909    0.00075131  41 t-inv F
  0.090909 -0.181818 -0.272727    0.00075131  41 t-inv F
 -0.090909  0.181818  0.272727    0.00075131  41 t-inv F
 -0.181818  0.090909 -0.272727    0.00075131  41 t-inv F
  0.181818 -0.090909  0.272727    0.00075131  41 t-inv F
 -0.272727  0.090909 -0.181818    0.00075131  41 t-inv F
  0.272727 -0.090909  0.181818    0.00075131  41 t-inv F
 -0.454545 -0.272727 -0.090909    0.00075131  42 t-inv F
  0.090909  0.454545  0.272727    0.00075131  42 t-inv F
 -0.090909 -0.454545 -0.272727    0.00075131  42 t-inv F
  0.272727  0.090909  0.454545    0.00075131  42 t-inv F
 -0.272727 -0.090909 -0.454545    0.00075131  42 t-inv F
 -0.454545 -0.090909 -0.272727    0.00075131  42 t-inv F
  0.454545  0.090909  0.272727    0.00075131  42 t-inv F
 -0.272727 -0.454545 -0.090909    0.00075131  42 t-inv F
  0.272727  0.454545  0.090909    0.00075131  42 t-inv F
 -0.090909 -0.272727 -0.454545    0.00075131  42 t-inv F
  0.090909  0.272727  0.454545    0.00075131  42 t-inv F
  0.272727  0.181818 -0.181818    0.00075131  42 t-inv F
 -0.272727 -0.181818  0.181818    0.00075131  42 t-inv F
  0.454545  0.181818  0.363636    0.00075131  42 t-inv F
 -0.454545 -0.181818 -0.363636    0.00075131  42 t-inv F
  0.090909 -0.363636 -0.181818    0.00075131  42 t-inv F
 -0.090909  0.363636  0.181818    0.00075131  42 t-inv F
  0.181818  0.363636 -0.090909    0.00075131  42 t-inv F
 -0.181818 -0.363636  0.090909    0.00075131  42 t-inv F
  0.181818 -0.181818 -0.272727    0.00075131  42 t-inv F
 -0.181818  0.181818  0.272727    0.00075131  42 t-inv F
 -0.363636 -0.181818 -0.454545    0.00075131  42 t-inv F
  0.363636  0.181818  0.454545    0.00075131  42 t-inv F
  0.363636  0.454545  0.181818    0.00075131  42 t-inv F
 -0.363636 -0.454545 -0.181818    0.00075131  42 t-inv F
 -0.181818  0.090909 -0.363636    0.00075131  42 t-inv F
  0.181818 -0.090909  0.363636    0.00075131  42 t-inv F
 -0.181818  0.272727  0.181818    0.00075131  42 t-inv F
  0.181818 -0.272727 -0.181818    0.00075131  42 t-inv F
 -0.090909  0.181818  0.363636    0.00075131  42 t-inv F
  0.090909 -0.181818 -0.363636    0.00075131  42 t-inv F
 -0.272727  0.181818 -0.181818    0.00075131  42 t-inv F
  0.272727 -0.181818  0.181818    0.00075131  42 t-inv F
 -0.454545 -0.363636 -0.181818    0.00075131  42 t-inv F
  0.454545  0.363636  0.181818    0.00075131  42 t-inv F
  0.181818  0.363636  0.454545    0.00075131  42 t-inv F
 -0.181818 -0.363636 -0.454545    0.00075131  42 t-inv F
 -0.363636 -0.181818  0.090909    0.00075131  42 t-inv F
  0.363636  0.181818 -0.090909    0.00075131  42 t-inv F
  0.181818 -0.181818  0.272727    0.00075131  42 t-inv F
 -0.181818  0.181818 -0.272727    0.00075131  42 t-inv F
  0.363636 -0.090909  0.181818    0.00075131  42 t-inv F
 -0.363636  0.090909 -0.181818    0.00075131  42 t-inv F
 -0.181818 -0.272727  0.181818    0.00075131  42 t-inv F
  0.181818  0.272727 -0.181818    0.00075131  42 t-inv F
 -0.181818 -0.454545 -0.363636    0.00075131  42 t-inv F
  0.181818  0.454545  0.363636    0.00075131  42 t-inv F
  0.454545 -0.272727 -0.090909    0.00075131  43 t-inv F
  0.090909 -0.454545  0.272727    0.00075131  43 t-inv F
 -0.090909  0.454545 -0.272727    0.00075131  43 t-inv F
  0.272727  0.090909 -0.454545    0.00075131  43 t-inv F
 -0.272727 -0.090909  0.454545    0.00075131  43 t-inv F
  0.454545 -0.090909 -0.272727    0.00075131  43 t-inv F
 -0.454545  0.090909  0.272727    0.00075131  43 t-inv F
 -0.272727  0.454545 -0.090909    0.00075131  43 t-inv F
  0.272727 -0.454545  0.090909    0.00075131  43 t-inv F
 -0.090909 -0.272727  0.454545    0.00075131  43 t-inv F
  0.090909  0.272727 -0.454545    0.00075131  43 t-inv F
  0.272727  0.181818  0.727273    0.00075131  43 t-inv F
 -0.272727 -0.181818 -0.727273    0.00075131  43 t-inv F
 -0.454545 -0.727273 -0.545455    0.00075131  43 t-inv F
  0.454545  0.727273  0.545455    0.00075131  43 t-inv F
  0.090909  0.545455 -0.181818    0.00075131  43 t-inv F
 -0.090909 -0.545455  0.181818    0.00075131  43 t-inv F
  0.181818 -0.545455 -0.090909    0.00075131  43 t-inv F
 -0.181818  0.545455  0.090909    0.00075131  43 t-inv F
 -0.727273 -0.181818 -0.272727    0.00075131  43 t-inv F
  0.727273  0.181818  0.272727    0.00075131  43 t-inv F
  0.545455  0.727273  0.454545    0.00075131  43 t-inv F
 -0.545455 -0.727273 -0.454545    0.00075131  43 t-inv F
 -0.545455 -0.454545 -0.727273    0.00075131  43 t-inv F
  0.545455  0.454545  0.727273    0.00075131  43 t-inv F
 -0.181818  0.090909  0.545455    0.00075131  43 t-inv F
  0.181818 -0.090909 -0.545455    0.00075131  43 t-inv F
  0.727273  0.272727  0.181818    0.00075131  43 t-inv F
 -0.727273 -0.272727 -0.181818    0.00075131  43 t-inv F
 -0.090909  0.181818 -0.545455    0.00075131  43 t-inv F
  0.090909 -0.181818  0.545455    0.00075131  43 t-inv F
 -0.272727 -0.727273 -0.181818    0.00075131  43 t-inv F
  0.272727  0.727273  0.181818    0.00075131  43 t-inv F
  0.454545  0.545455  0.727273    0.00075131  43 t-inv F
 -0.454545 -0.545455 -0.727273    0.00075131  43 t-inv F
 -0.727273 -0.545455 -0.454545    0.00075131  43 t-inv F
  0.727273  0.545455  0.454545    0.00075131  43 t-inv F
  0.545455 -0.181818  0.090909    0.00075131  43 t-inv F
 -0.545455  0.181818 -0.090909    0.00075131  43 t-inv F
  0.181818  0.727273  0.272727    0.00075131  43 t-inv F
 -0.181818 -0.727273 -0.272727    0.00075131  43 t-inv F
 -0.545455 -0.090909  0.181818    0.00075131  43 t-inv F
  0.545455  0.090909 -0.181818    0.00075131  43 t-inv F
 -0.181818 -0.272727 -0.727273    0.00075131  43 t-inv F
  0.181818  0.272727  0.727273    0.00075131  43 t-inv F
  0.727273  0.454545  0.545455    0.00075131  43 t-inv F
 -0.727273 -0.454545 -0.545455    0.00075131  43 t-inv F
  0.363636 -0.272727 -0.090909    0.00075131  44 t-inv F
  0.090909 -0.363636  0.272727    0.00075131  44 t-inv F
 -0.090909  0.363636 -0.272727    0.00075131  44 t-inv F
  0.272727  0.090909 -0.363636    0.00075131  44 t-inv F
 -0.272727 -0.090909  0.363636    0.00075131  44 t-inv F
  0.363636 -0.090909 -0.272727    0.00075131  44 t-inv F
 -0.363636  0.090909  0.272727    0.00075131  44 t-inv F
 -0.272727  0.363636 -0.090909    0.00075131  44 t-inv F
  0.272727 -0.363636  0.090909    0.00075131  44 t-inv F
 -0.090909 -0.272727  0.363636    0.00075131  44 t-inv F
  0.090909  0.272727 -0.363636    0.00075131  44 t-inv F
  0.272727  0.181818  0.636364    0.00075131  44 t-inv F
 -0.272727 -0.181818 -0.636364    0.00075131  44 t-inv F
 -0.363636 -0.636364 -0.454545    0.00075131  44 t-inv F
  0.363636  0.636364  0.454545    0.00075131  44 t-inv F
  0.090909  0.454545 -0.181818    0.00075131  44 t-inv F
 -0.090909 -0.454545  0.181818    0.00075131  44 t-inv F
  0.181818 -0.454545 -0.090909    0.00075131  44 t-inv F
 -0.181818  0.454545  0.090909    0.00075131  44 t-inv F
 -0.636364 -0.181818 -0.272727    0.00075131  44 t-inv F
  0.636364  0.181818  0.272727    0.00075131  44 t-inv F
  0.454545  0.636364  0.363636    0.00075131  44 t-inv F
 -0.454545 -0.636364 -0.363636    0.00075131  44 t-inv F
 -0.454545 -0.363636 -0.636364    0.00075131  44 t-inv F
  0.454545  0.363636  0.636364    0.00075131  44 t-inv F
 -0.181818  0.090909  0.454545    0.00075131  44 t-inv F
  0.181818 -0.090909 -0.454545    0.00075131  44 t-inv F
  0.636364  0.272727  0.181818    0.00075131  44 t-inv F
 -0.636364 -0.272727 -0.181818    0.00075131  44 t-inv F
 -0.090909  0.181818 -0.454545    0.00075131  44 t-inv F
  0.090909 -0.181818  0.454545    0.00075131  44 t-inv F
 -0.272727 -0.636364 -0.181818    0.00075131  44 t-inv F
  0.272727  0.636364  0.181818    0.00075131  44 t-inv F
  0.363636  0.454545  0.636364    0.00075131  44 t-inv F
 -0.363636 -0.454545 -0.636364    0.00075131  44 t-inv F
 -0.636364 -0.454545 -0.363636    0.00075131  44 t-inv F
  0.636364  0.454545  0.363636    0.00075131  44 t-inv F
  0.454545 -0.181818  0.090909    0.00075131  44 t-inv F
 -0.454545  0.181818 -0.090909    0.00075131  44 t-inv F
  0.181818  0.636364  0.272727    0.00075131  44 t-inv F
 -0.181818 -0.636364 -0.272727    0.00075131  44 t-inv F
 -0.454545 -0.090909  0.181818    0.00075131  44 t-inv F
  0.454545  0.090909 -0.181818    0.00075131  44 t-inv F
 -0.181818 -0.272727 -0.636364    0.00075131  44 t-inv F
  0.181818  0.272727  0.636364    0.00075131  44 t-inv F
  0.636364  0.363636  0.454545    0.00075131  44 t-inv F
 -0.636364 -0.363636 -0.454545    0.00075131  44 t-inv F
  0.272727 -0.272727 -0.090909    0.00075131  45 t-inv F
  0.090909 -0.272727  0.272727    0.00075131  45 t-inv F
 -0.090909  0.272727 -0.272727    0.00075131  45 t-inv F
  0.272727  0.090909 -0.272727    0.00075131  45 t-inv F
 -0.272727 -0.090909  0.272727    0.00075131  45 t-inv F
  0.272727 -0.090909 -0.272727    0.00075131  45 t-inv F
 -0.272727  0.090909  0.272727    0.00075131  45 t-inv F
 -0.272727  0.272727 -0.090909    0.00075131  45 t-inv F
  0.272727 -0.272727  0.090909    0.00075131  45 t-inv F
 -0.090909 -0.272727  0.272727    0.00075131  45 t-inv F
  0.090909  0.272727 -0.272727    0.00075131  45 t-inv F
  0.272727  0.181818  0.545455    0.00075131  45 t-inv F
 -0.272727 -0.181818 -0.545455    0.00075131  45 t-inv F
 -0.272727 -0.545455 -0.363636    0.00075131  45 t-inv F
  0.272727  0.545455  0.363636    0.00075131  45 t-inv F
  0.090909  0.363636 -0.181818    0.00075131  45 t-inv F
 -0.090909 -0.363636  0.181818    0.00075131  45 t-inv F
  0.181818 -0.363636 -0.090909    0.00075131  45 t-inv F
 -0.181818  0.363636  0.090909    0.00075131  45 t-inv F
 -0.545455 -0.181818 -0.272727    0.00075131  45 t-inv F
  0.545455  0.181818  0.272727    0.00075131  45 t-inv F
  0.363636  0.545455  0.272727    0.00075131  45 t-inv F
 -0.363636 -0.545455 -0.272727    0.00075131  45 t-inv F
 -0.363636 -0.272727 -0.545455    0.00075131  45 t-inv F
  0.363636  0.272727  0.545455    0.00075131  45 t-inv F
 -0.181818  0.090909  0.363636    0.00075131  45 t-inv F
  0.181818 -0.090909 -0.363636    0.00075131  45 t-inv F
  0.545455  0.272727  0.181818    0.00075131  45 t-inv F
 -0.545455 -0.272727 -0.181818    0.00075131  45 t-inv F
 -0.090909  0.181818 -0.363636    0.00075131  45 t-inv F
  0.090909 -0.181818  0.363636    0.00075131  45 t-inv F
 -0.272727 -0.545455 -0.181818    0.00075131  45 t-inv F
  0.272727  0.545455  0.181818    0.00075131  45 t-inv F
  0.272727  0.363636  0.545455    0.00075131  45 t-inv F
 -0.272727 -0.363636 -0.545455    0.00075131  45 t-inv F
 -0.545455 -0.363636 -0.272727    0.00075131  45 t-inv F
  0.545455  0.363636  0.272727    0.00075131  45 t-inv F
  0.363636 -0.181818  0.090909    0.00075131  45 t-inv F
 -0.363636  0.181818 -0.090909    0.00075131  45 t-inv F
  0.181818  0.545455  0.272727    0.00075131  45 t-inv F
 -0.181818 -0.545455 -0.272727    0.00075131  45 t-inv F
 -0.363636 -0.090909  0.181818    0.00075131  45 t-inv F
  0.363636  0.090909 -0.181818    0.00075131  45 t-inv F
 -0.181818 -0.272727 -0.545455    0.00075131  45 t-inv F
  0.181818  0.272727  0.545455    0.00075131  45 t-inv F
  0.545455  0.272727  0.363636    0.00075131  45 t-inv F
 -0.545455 -0.272727 -0.363636    0.00075131  45 t-inv F
  0.181818 -0.272727 -0.090909    0.00075131  46 t-inv F
  0.090909 -0.181818  0.272727    0.00075131  46 t-inv F
 -0.090909  0.181818 -0.272727    0.00075131  46 t-inv F
  0.272727  0.090909 -0.181818    0.00075131  46 t-inv F
 -0.272727 -0.090909  0.181818    0.00075131  46 t-inv F
  0.181818 -0.090909 -0.272727    0.00075131  46 t-inv F
 -0.181818  0.090909  0.272727    0.00075131  46 t-inv F
 -0.272727  0.181818 -0.090909    0.00075131  46 t-inv F
  0.272727 -0.181818  0.090909    0.00075131  46 t-inv F
 -0.090909 -0.272727  0.181818    0.00075131  46 t-inv F
  0.090909  0.272727 -0.181818    0.00075131  46 t-inv F
  0.272727  0.181818  0.454545    0.00075131  46 t-inv F
 -0.272727 -0.181818 -0.454545    0.00075131  46 t-inv F
 -0.181818 -0.454545 -0.272727    0.00075131  46 t-inv F
  0.181818  0.454545  0.272727    0.00075131  46 t-inv F
 -0.454545 -0.181818 -0.272727    0.00075131  46 t-inv F
  0.454545  0.181818  0.272727    0.00075131  46 t-inv F
  0.272727  0.454545  0.181818    0.00075131  46 t-inv F
 -0.272727 -0.454545 -0.181818    0.00075131  46 t-inv F
  0.454545  0.272727  0.181818    0.00075131  46 t-inv F
 -0.454545 -0.272727 -0.181818    0.00075131  46 t-inv F
  0.181818  0.272727  0.454545    0.00075131  46 t-inv F
 -0.181818 -0.272727 -0.454545    0.00075131  46 t-inv F
 -0.454545 -0.363636 -0.090909    0.00075131  47 t-inv F
  0.090909  0.454545  0.363636    0.00075131  47 t-inv F
 -0.090909 -0.454545 -0.363636    0.00075131  47 t-inv F
  0.363636  0.090909  0.454545    0.00075131  47 t-inv F
 -0.363636 -0.090909 -0.454545    0.00075131  47 t-inv F
 -0.454545 -0.090909 -0.363636    0.00075131  47 t-inv F
  0.454545  0.090909  0.363636    0.00075131  47 t-inv F
 -0.363636 -0.454545 -0.090909    0.00075131  47 t-inv F
  0.363636  0.454545  0.090909    0.00075131  47 t-inv F
 -0.090909 -0.363636 -0.454545    0.00075131  47 t-inv F
  0.090909  0.363636  0.454545    0.00075131  47 t-inv F
  0.363636  0.272727 -0.090909    0.00075131  47 t-inv F
 -0.363636 -0.272727  0.090909    0.00075131  47 t-inv F
  0.090909 -0.363636 -0.272727    0.00075131  47 t-inv F
 -0.090909  0.363636  0.272727    0.00075131  47 t-inv F
  0.272727  0.363636 -0.090909    0.00075131  47 t-inv F
 -0.272727 -0.363636  0.090909    0.00075131  47 t-inv F
  0.090909 -0.272727 -0.363636    0.00075131  47 t-inv F
 -0.090909  0.272727  0.363636    0.00075131  47 t-inv F
 -0.272727  0.090909 -0.363636    0.00075131  47 t-inv F
  0.272727 -0.090909  0.363636    0.00075131  47 t-inv F
 -0.363636  0.090909 -0.272727    0.00075131  47 t-inv F
  0.363636 -0.090909  0.272727    0.00075131  47 t-inv F
  0.454545 -0.363636 -0.090909    0.00075131  48 t-inv F
  0.090909 -0.454545  0.363636    0.00075131  48 t-inv F
 -0.090909  0.454545 -0.363636    0.00075131  48 t-inv F
  0.363636  0.090909 -0.454545    0.00075131  48 t-inv F
 -0.363636 -0.090909  0.454545    0.00075131  48 t-inv F
  0.454545 -0.090909 -0.363636    0.00075131  48 t-inv F
 -0.454545  0.090909  0.363636    0.00075131  48 t-inv F
 -0.363636  0.454545 -0.090909    0.00075131  48 t-inv F
  0.363636 -0.454545  0.090909    0.00075131  48 t-inv F
 -0.090909 -0.363636  0.454545    0.00075131  48 t-inv F
  0.090909  0.363636 -0.454545    0.00075131  48 t-inv F
  0.363636  0.272727  0.818182    0.00075131  48 t-inv F
 -0.363636 -0.272727 -0.818182    0.00075131  48 t-inv F
 -0.454545 -0.818182 -0.545455    0.00075131  48 t-inv F
  0.454545  0.818182  0.545455    0.00075131  48 t-inv F
  0.090909  0.545455 -0.272727    0.00075131  48 t-inv F
 -0.090909 -0.545455  0.272727    0.00075131  48 t-inv F
  0.272727 -0.545455 -0.090909    0.00075131  48 t-inv F
 -0.272727  0.545455  0.090909    0.00075131  48 t-inv F
 -0.818182 -0.272727 -0.363636    0.00075131  48 t-inv F
  0.818182  0.272727  0.363636    0.00075131  48 t-inv F
  0.545455  0.818182  0.454545    0.00075131  48 t-inv F
 -0.545455 -0.818182 -0.454545    0.00075131  48 t-inv F
 -0.545455 -0.454545 -0.818182    0.00075131  48 t-inv F
  0.545455  0.454545  0.818182    0.00075131  48 t-inv F
 -0.272727  0.090909  0.545455    0.00075131  48 t-inv F
  0.272727 -0.090909 -0.545455    0.00075131  48 t-inv F
  0.818182  0.363636  0.272727    0.00075131  48 t-inv F
 -0.818182 -0.363636 -0.272727    0.00075131  48 t-inv F
 -0.090909  0.272727 -0.545455    0.00075131  48 t-inv F
  0.090909 -0.272727  0.545455    0.00075131  48 t-inv F
 -0.363636 -0.818182 -0.272727    0.00075131  48 t-inv F
  0.363636  0.818182  0.272727    0.00075131  48 t-inv F
  0.454545  0.545455  0.818182    0.00075131  48 t-inv F
 -0.454545 -0.545455 -0.818182    0.00075131  48 t-inv F
 -0.818182 -0.545455 -0.454545    0.00075131  48 t-inv F
  0.818182  0.545455  0.454545    0.00075131  48 t-inv F
  0.545455 -0.272727  0.090909    0.00075131  48 t-inv F
 -0.545455  0.272727 -0.090909    0.00075131  48 t-inv F
  0.272727  0.818182  0.363636    0.00075131  48 t-inv F
 -0.272727 -0.818182 -0.363636    0.00075131  48 t-inv F
 -0.545455 -0.090909  0.272727    0.00075131  48 t-inv F
  0.545455  0.090909 -0.272727    0.00075131  48 t-inv F
 -0.272727 -0.363636 -0.818182    0.00075131  48 t-inv F
  0.272727  0.363636  0.818182    0.00075131  48 t-inv F
  0.818182  0.454545  0.545455    0.00075131  48 t-inv F
 -0.818182 -0.454545 -0.545455    0.00075131  48 t-inv F
  0.363636 -0.363636 -0.090909    0.00075131  49 t-inv F
  0.090909 -0.363636  0.363636    0.00075131  49 t-inv F
 -0.090909  0.363636 -0.363636    0.00075131  49 t-inv F
  0.363636  0.090909 -0.363636    0.00075131  49 t-inv F
 -0.363636 -0.090909  0.363636    0.00075131  49 t-inv F
  0.363636 -0.090909 -0.363636    0.00075131  49 t-inv F
 -0.363636  0.090909  0.363636    0.00075131  49 t-inv F
 -0.363636  0.363636 -0.090909    0.00075131  49 t-inv F
  0.363636 -0.363636  0.090909    0.00075131  49 t-inv F
 -0.090909 -0.363636  0.363636    0.00075131  49 t-inv F
  0.090909  0.363636 -0.363636    0.00075131  49 t-inv F
  0.363636  0.272727  0.727273    0.00075131  49 t-inv F
 -0.363636 -0.272727 -0.727273    0.00075131  49 t-inv F
 -0.363636 -0.727273 -0.454545    0.00075131  49 t-inv F
  0.363636  0.727273  0.454545    0.00075131  49 t-inv F
[...]
   NLSPLINE    = F    spline interpolate recip. space projectors
   LCOMPAT=      F    compatible to vasp.4.4
   GGA_COMPAT  = T    GGA compatible to vasp.4.4-vasp.4.6
   LMAXPAW     = -100 max onsite density
   LMAXMIX     =    2 max onsite mixed and CHGCAR
   VOSKOWN=      0    Vosko Wilk Nusair interpolation
   ROPT   =    0.00000
 Ionic relaxation
   EDIFFG = 0.1E-02   stopping-criterion for IOM
   NSW    =      0    number of steps for IOM
   NBLOCK =      1;   KBLOCK =      1    inner block; outer block 
   IBRION =     -1    ionic relax: 0-MD 1-quasi-New 2-CG
   NFREE  =      0    steps in history (QN), initial steepest desc. (CG)
   ISIF   =      0    stress and relaxation
   IWAVPR =     10    prediction:  0-non 1-charg 2-wave 3-comb
   ISYM   =      3    0-nonsym 1-usesym 2-fastsym
   LCORR  =      T    Harris-Foulkes like correction to forces

   POTIM  = 0.5000    time-step for ionic-motion
   TEIN   =    0.0    initial temperature
   TEBEG  =    0.0;   TEEND  =   0.0 temperature during run
   SMASS  =  -3.00    Nose mass-parameter (am)
   estimated Nose-frequenzy (Omega)   =  0.10E-29 period in steps = 0.13E+47 mass=  -0.342E-27a.u.
   SCALEE = 1.0000    scale energy and forces
   NPACO  =    256;   APACO  = 10.0  distance and # of slots for P.C.
   PSTRESS=    0.0 pullay stress

  Mass of Ions in am
   POMASS =  72.61
  Ionic Valenz
   ZVAL   =  14.00
  Atomic Wigner-Seitz radii
   RWIGS  =  -1.00
  virtual crystal weights 
   VCA    =   1.00
   NELECT =      28.0000    total number of electrons
   NUPDOWN=      -1.0000    fix difference up-down

 DOS related values:
   EMIN   =  10.00;   EMAX   =-10.00  energy-range for DOS
   EFERMI =   0.00
   ISMEAR =    -5;   SIGMA  =   0.05  broadening in eV -4-tet -1-fermi 0-gaus

 Electronic relaxation 2 (details)
   IALGO  =     38    algorithm
   LDIAG  =      T    sub-space diagonalisation (order eigenvalues)
   LSUBROT=      F    optimize rotation matrix (better conditioning)
   TURBO    =      0    0=normal 1=particle mesh
   IRESTART =      0    0=no restart 2=restart with 2 vectors
   NREBOOT  =      0    no. of reboots
   NMIN     =      0    reboot dimension
   EREF     =   0.00    reference energy to select bands
   IMIX   =      1    mixing-type and parameters
     AMIX     =   0.40;   BMIX     =  1.00
     AMIX_MAG =   1.60;   BMIX_MAG =  1.00
     AMIN     =   0.10
     WC   =   100.;   INIMIX=   1;  MIXPRE=   1;  MAXMIX= -45

 Intra band minimization:
   WEIMIN = 0.0000     energy-eigenvalue tresh-hold
   EBREAK =  0.14E-05  absolut break condition
   DEPER  =   0.30     relativ break condition  

   TIME   =   0.40     timestep for ELM

  volume/ion in A,a.u.               =      20.44       137.96
  Fermi-wavevector in a.u.,A,eV,Ry     =   1.443001  2.726877 28.330763  2.082252
  Thomas-Fermi vector in A             =   2.561458

 Write flags
   LWAVE        =      F    write WAVECAR
   LDOWNSAMPLE  =      F    k-point downsampling of WAVECAR
   LCHARG       =      F    write CHGCAR
   LVTOT        =      F    write LOCPOT, total local potential
   LVHAR        =      F    write LOCPOT, Hartree potential only
   LELF         =      F    write electronic localiz. function (ELF)
   LORBIT       =     10    0 simple, 1 ext, 2 COOP (PROOUT), +10 PAW based schemes


 Dipole corrections
   LMONO  =      F    monopole corrections only (constant potential shift)
   LDIPOL =      F    correct potential (dipole corrections)
   IDIPOL =      0    1-x, 2-y, 3-z, 4-all directions 
   EPSILON=  1.0000000 bulk dielectric constant

 Exchange correlation treatment:
   GGA     =    --    GGA type
   LEXCH   =     8    internal setting for exchange type
   LIBXC   =     F    Libxc                    
   VOSKOWN =     0    Vosko Wilk Nusair interpolation
   EXXOEP  =     0    0=HF, 1=EXX-LHF (local Hartree Fock) 2=EXX OEP
   LHFCALC =     T    Hartree Fock is set to
   LSYMGRAD=     F    symmetrize gradient (conserves proper symmetry)
   PRECFOCK=normal    Normal, Fast or Accurate (Low or Medium for compatibility)
   LRHFCALC=     F    long range Hartree Fock
   LRSCOR  =     F    long range correlation only (use DFT for short range part)
   LTHOMAS =     F    Thomas Fermi screening in HF
   LMODELHF=     F    short range full HF, long range fraction AEXX
   FOCKCORR=     1    mode to apply convergence corrections
   LFOCKACE=     T    use Adeptively-Compressed-Exchange operator
   ENCUT4O =  -1.0   cutoff for four orbital integrals eV
   LMAXFOCK=     4    L truncation for augmentation on plane wave grid
   LMAXFOCKAE=  -1    L truncation for all-electron charge restoration on plane wave grid
   NMAXFOCKAE=   1    number of basis functions for all-electron charge restoration
   LFOCKAEDFT=     F  apply the AE augmentation even for DFT
   NKREDX  =     1    reduce k-point grid by
   NKREDY  =     1    reduce k-point grid by
   NKREDZ  =     1    reduce k-point grid by
   SHIFTRED=     F    shift reduced grid of Gamma
   HFKIDENT=     F    idential grid for each k-point
   ODDONLY =     F    use only odd q-grid points
   EVENONLY=     F    use only even q-grid points
   HFALPHA =   -1.0000 decay constant for conv. correction
   MCALPHA =    0.0000 extent of test-charge in conv. correction in multipole expansion
   AEXX    =    0.2500 exact exchange contribution
   HFSCREEN=    0.2000 screening length (either q_TF or 0.3 A-1)
   HFSCREENC=   0.2000 screening length for correlation (either q_TF or 0.3 A-1)
   HFRCUT  =    0.0000 spherical cutoff for potential kernel
   ALDAX   =    0.7500 LDA exchange part
   AGGAX   =    0.7500 GGA exchange part
   ALDAC   =    1.0000 LDA correlation
   AGGAC   =    1.0000 GGA correlation
   ENCUTFOCK=  -1.0 apply spherical cutoff to Coloumb kernel
   NBANDSGWLOW=     1    first orbital included in HF term
   NBLOCK_FOCK=    64    blocking factor in FOCK_ACC

 Linear response parameters
   LEPSILON=     F    determine dielectric tensor
   LRPA    =     F    only Hartree local field effects (RPA)
   LNABLA  =     F    use nabla operator in PAW spheres
   LVEL    =     F    velocity operator in full k-point grid
   CSHIFT  =0.1000    complex shift for real part using Kramers Kronig
   OMEGAMAX=  -1.0    maximum frequency
   DEG_THRESHOLD= 0.2000000E-02 threshold for treating states as degnerate
   RTIME   =   -0.100 relaxation time in fs
  (WPLASMAI=    0.000 imaginary part of plasma frequency in eV, 0.658/RTIME)
   DFIELD  = 0.0000000 0.0000000 0.0000000 field for delta impulse in time

  Optional k-point grid parameters
   LKPOINTS_OPT  =     F    use optional k-point grid
   KPOINTS_OPT_MODE=     1    mode for optional k-point grid

 Orbital magnetization related:
   ORBITALMAG=     F  switch on orbital magnetization
   LCHIMAG   =     F  perturbation theory with respect to B field
   DQ        =  0.001000  dq finite difference perturbation B field
   LLRAUG    =     F  two centre corrections for induced B field



--------------------------------------------------------------------------------------------------------


 Static calculation
 charge density and potential will be updated during run
 non-spin polarized calculation
 Variant of blocked Davidson
 Davidson routine will perform the subspace rotation
 perform sub-space diagonalisation
    after iterative eigenvector-optimisation
 Kerker-like  mixing scheme
 using additional bands            4
 reciprocal scheme for non local part
 use partial core corrections
 calculate Harris-corrections to forces   (improved forces if not selfconsistent)
 use gradient corrections 
 use of overlap-Matrix (Vanderbilt PP)
 Fermi weights with tetrahedron method with Bloechl corrections


--------------------------------------------------------------------------------------------------------


  energy-cutoff  :      450.00
  volume of cell :       40.89
      direct lattice vectors                 reciprocal lattice vectors
     0.000000000  2.734329408  2.734329408    -0.182860192  0.182860192  0.182860192
     2.734329408  0.000000000  2.734329408     0.182860192 -0.182860192  0.182860192
     2.734329408  2.734329408  0.000000000     0.182860192  0.182860192 -0.182860192

  length of vectors
     3.866925732  3.866925732  3.866925732     0.316723143  0.316723143  0.316723143



 old parameters found on file WAVECAR:
  energy-cutoff  :      450.00
  volume of cell :       40.89
      direct lattice vectors                 reciprocal lattice vectors
     0.000000000  2.734329408  2.734329408    -0.182860192  0.182860192  0.182860192
     2.734329408  0.000000000  2.734329408     0.182860192 -0.182860192  0.182860192
     2.734329408  2.734329408  0.000000000     0.182860192  0.182860192 -0.182860192

  length of vectors


 k-points in units of 2pi/SCALE and weight: K-Spacing Value to Generate K-Mesh: 0.03
   0.00000000  0.00000000  0.00000000       0.001
  -0.09433681  0.09433681  0.09433681       0.006
  -0.18867362  0.18867362  0.18867362       0.006
  -0.28301044  0.28301044  0.28301044       0.006
  -0.37734725  0.37734725  0.37734725       0.006
  -0.47168406  0.47168406  0.47168406       0.006
   0.00000000  0.00000000  0.18867362       0.005
  -0.09433681  0.09433681  0.28301044       0.018
  -0.18867362  0.18867362  0.37734725       0.018
  -0.28301044  0.28301044  0.47168406       0.018
  -0.37734725  0.37734725  0.56602087       0.018
   0.56602087 -0.56602087 -0.37734725       0.018
   0.47168406 -0.47168406 -0.28301044       0.018
   0.37734725 -0.37734725 -0.18867362       0.018
   0.28301044 -0.28301044 -0.09433681       0.018
   0.18867362 -0.18867362  0.00000000       0.009
   0.00000000  0.00000000  0.37734725       0.005
  -0.09433681  0.09433681  0.47168406       0.018
  -0.18867362  0.18867362  0.56602087       0.018
  -0.28301044  0.28301044  0.66035768       0.018
   0.66035768 -0.66035768 -0.28301044       0.018
   0.56602087 -0.56602087 -0.18867362       0.018
   0.47168406 -0.47168406 -0.09433681       0.018
   0.37734725 -0.37734725  0.00000000       0.009
   0.00000000  0.00000000  0.56602087       0.005
  -0.09433681  0.09433681  0.66035768       0.018
  -0.18867362  0.18867362  0.75469449       0.018
   0.75469449 -0.75469449 -0.18867362       0.018
   0.66035768 -0.66035768 -0.09433681       0.018
   0.56602087 -0.56602087  0.00000000       0.009
   0.00000000  0.00000000  0.75469449       0.005
  -0.09433681  0.09433681  0.84903131       0.018
   0.84903131 -0.84903131 -0.09433681       0.018
   0.75469449 -0.75469449  0.00000000       0.009
   0.00000000  0.00000000  0.94336812       0.005
   0.94336812 -0.94336812  0.00000000       0.009
   0.00000000  0.18867362  0.37734725       0.018
  -0.09433681  0.28301044  0.47168406       0.036
  -0.18867362  0.37734725  0.56602087       0.036
   0.75469449 -0.56602087 -0.37734725       0.036
   0.00000000  0.18867362  0.56602087       0.018
  -0.09433681  0.28301044  0.66035768       0.036
   0.84903131 -0.66035768 -0.28301044       0.036
   0.75469449 -0.56602087 -0.18867362       0.036
   0.66035768 -0.47168406 -0.09433681       0.036
   0.56602087 -0.37734725  0.00000000       0.018
   0.00000000  0.18867362  0.75469449       0.018
   0.94336812 -0.75469449 -0.18867362       0.036
   0.84903131 -0.66035768 -0.09433681       0.036
   0.75469449 -0.56602087  0.00000000       0.018
   1.03770493 -0.84903131 -0.09433681       0.018
   0.94336812 -0.75469449 -0.00000000       0.018
   1.03770493 -0.66035768 -0.28301044       0.018
   0.94336812 -0.56602087 -0.18867362       0.036
   1.03770493 -0.66035768 -0.09433681       0.018
   0.94336812 -0.56602087  0.00000000       0.018

 k-points in reciprocal lattice and weights: K-Spacing Value to Generate K-Mesh: 0.03
   0.00000000  0.00000000  0.00000000       0.001
   0.09090909  0.00000000  0.00000000       0.006
   0.18181818  0.00000000  0.00000000       0.006
   0.27272727  0.00000000  0.00000000       0.006
   0.36363636  0.00000000  0.00000000       0.006
   0.45454545  0.00000000  0.00000000       0.006
   0.09090909  0.09090909  0.00000000       0.005
   0.18181818  0.09090909  0.00000000       0.018
   0.27272727  0.09090909  0.00000000       0.018
   0.36363636  0.09090909  0.00000000       0.018
   0.45454545  0.09090909  0.00000000       0.018
  -0.45454545  0.09090909  0.00000000       0.018
  -0.36363636  0.09090909  0.00000000       0.018
  -0.27272727  0.09090909  0.00000000       0.018
  -0.18181818  0.09090909  0.00000000       0.018
  -0.09090909  0.09090909  0.00000000       0.009
   0.18181818  0.18181818  0.00000000       0.005
   0.27272727  0.18181818  0.00000000       0.018
   0.36363636  0.18181818  0.00000000       0.018
   0.45454545  0.18181818  0.00000000       0.018
  -0.45454545  0.18181818  0.00000000       0.018
  -0.36363636  0.18181818  0.00000000       0.018
  -0.27272727  0.18181818  0.00000000       0.018
  -0.18181818  0.18181818  0.00000000       0.009
   0.27272727  0.27272727  0.00000000       0.005
   0.36363636  0.27272727  0.00000000       0.018
   0.45454545  0.27272727  0.00000000       0.018
  -0.45454545  0.27272727  0.00000000       0.018
  -0.36363636  0.27272727  0.00000000       0.018
  -0.27272727  0.27272727  0.00000000       0.009
   0.36363636  0.36363636  0.00000000       0.005
   0.45454545  0.36363636  0.00000000       0.018
  -0.45454545  0.36363636  0.00000000       0.018
  -0.36363636  0.36363636  0.00000000       0.009
   0.45454545  0.45454545  0.00000000       0.005
  -0.45454545  0.45454545  0.00000000       0.009
   0.27272727  0.18181818  0.09090909       0.018
   0.36363636  0.18181818  0.09090909       0.036
   0.45454545  0.18181818  0.09090909       0.036
  -0.45454545  0.18181818  0.09090909       0.036
   0.36363636  0.27272727  0.09090909       0.018
   0.45454545  0.27272727  0.09090909       0.036
  -0.45454545  0.27272727  0.09090909       0.036
  -0.36363636  0.27272727  0.09090909       0.036
  -0.27272727  0.27272727  0.09090909       0.036
  -0.18181818  0.27272727  0.09090909       0.018
   0.45454545  0.36363636  0.09090909       0.018
  -0.45454545  0.36363636  0.09090909       0.036
  -0.36363636  0.36363636  0.09090909       0.036
  -0.27272727  0.36363636  0.09090909       0.018
  -0.45454545  0.45454545  0.09090909       0.018
  -0.36363636  0.45454545  0.09090909       0.018
  -0.45454545  0.36363636  0.18181818       0.018
  -0.36363636  0.36363636  0.18181818       0.036
  -0.36363636  0.45454545  0.18181818       0.018
  -0.27272727  0.45454545  0.18181818       0.018

 position of ions in fractional coordinates (direct lattice) 
   0.87500000  0.87500000  0.87500000
   0.12500000  0.12500000  0.12500000

 position of ions in cartesian coordinates  (Angst):
   4.78507646  4.78507646  4.78507646
   0.68358235  0.68358235  0.68358235



--------------------------------------------------------------------------------------------------------


 k-point   1 :   0.0000 0.0000 0.0000  plane waves:     893
 k-point   2 :   0.0909 0.0000 0.0000  plane waves:     899
 k-point   3 :   0.1818 0.0000 0.0000  plane waves:     905
 k-point   4 :   0.2727 0.0000 0.0000  plane waves:     890
 k-point   5 :   0.3636 0.0000 0.0000  plane waves:     884
 k-point   6 :   0.4545 0.0000 0.0000  plane waves:     884
 k-point   7 :   0.0909 0.0909 0.0000  plane waves:     889
 k-point   8 :   0.1818 0.0909 0.0000  plane waves:     898
 k-point   9 :   0.2727 0.0909 0.0000  plane waves:     887
 k-point  10 :   0.3636 0.0909 0.0000  plane waves:     886
 k-point  11 :   0.4545 0.0909 0.0000  plane waves:     887
 k-point  12 :  -0.4545 0.0909 0.0000  plane waves:     881
 k-point  13 :  -0.3636 0.0909 0.0000  plane waves:     881
 k-point  14 :  -0.2727 0.0909 0.0000  plane waves:     885
 k-point  15 :  -0.1818 0.0909 0.0000  plane waves:     897
 k-point  16 :  -0.0909 0.0909 0.0000  plane waves:     903
 k-point  17 :   0.1818 0.1818 0.0000  plane waves:     885
 k-point  18 :   0.2727 0.1818 0.0000  plane waves:     880
 k-point  19 :   0.3636 0.1818 0.0000  plane waves:     880
 k-point  20 :   0.4545 0.1818 0.0000  plane waves:     887
 k-point  21 :  -0.4545 0.1818 0.0000  plane waves:     879
 k-point  22 :  -0.3636 0.1818 0.0000  plane waves:     880
 k-point  23 :  -0.2727 0.1818 0.0000  plane waves:     893
 k-point  24 :  -0.1818 0.1818 0.0000  plane waves:     889
 k-point  25 :   0.2727 0.2727 0.0000  plane waves:     882
 k-point  26 :   0.3636 0.2727 0.0000  plane waves:     887
 k-point  27 :   0.4545 0.2727 0.0000  plane waves:     891
 k-point  28 :  -0.4545 0.2727 0.0000  plane waves:     880
 k-point  29 :  -0.3636 0.2727 0.0000  plane waves:     878
 k-point  30 :  -0.2727 0.2727 0.0000  plane waves:     891
 k-point  31 :   0.3636 0.3636 0.0000  plane waves:     882
 k-point  32 :   0.4545 0.3636 0.0000  plane waves:     893
 k-point  33 :  -0.4545 0.3636 0.0000  plane waves:     890
 k-point  34 :  -0.3636 0.3636 0.0000  plane waves:     890
 k-point  35 :   0.4545 0.4545 0.0000  plane waves:     886
 k-point  36 :  -0.4545 0.4545 0.0000  plane waves:     888
 k-point  37 :   0.2727 0.1818 0.0909  plane waves:     895
 k-point  38 :   0.3636 0.1818 0.0909  plane waves:     884
 k-point  39 :   0.4545 0.1818 0.0909  plane waves:     884
 k-point  40 :  -0.4545 0.1818 0.0909  plane waves:     887
 k-point  41 :   0.3636 0.2727 0.0909  plane waves:     888
 k-point  42 :   0.4545 0.2727 0.0909  plane waves:     881
 k-point  43 :  -0.4545 0.2727 0.0909  plane waves:     891
 k-point  44 :  -0.3636 0.2727 0.0909  plane waves:     881
 k-point  45 :  -0.2727 0.2727 0.0909  plane waves:     888
 k-point  46 :  -0.1818 0.2727 0.0909  plane waves:     885
 k-point  47 :   0.4545 0.3636 0.0909  plane waves:     881
 k-point  48 :  -0.4545 0.3636 0.0909  plane waves:     884
 k-point  49 :  -0.3636 0.3636 0.0909  plane waves:     889
 k-point  50 :  -0.2727 0.3636 0.0909  plane waves:     883
 k-point  51 :  -0.4545 0.4545 0.0909  plane waves:     886
 k-point  52 :  -0.3636 0.4545 0.0909  plane waves:     885
 k-point  53 :  -0.4545 0.3636 0.1818  plane waves:     887
 k-point  54 :  -0.3636 0.3636 0.1818  plane waves:     888
 k-point  55 :  -0.3636 0.4545 0.1818  plane waves:     893
 k-point  56 :  -0.2727 0.4545 0.1818  plane waves:     884

 maximum and minimum number of plane-waves per node :       905      878

 maximum number of plane-waves:       905
 maximum index in each direction: 
   IXMAX=    7   IYMAX=    6   IZMAX=    6
   IXMIN=   -7   IYMIN=   -7   IZMIN=   -6


 serial   3D FFT for wavefunctions
 parallel 3D FFT for charge:
    minimum data exchange during FFTs selected (reduces bandwidth)


 FFT grid for exact exchange (Hartree Fock) 
  NGX = 24; NGY = 24; NGZ = 24


 Radii for the augmentation spheres in the non-local exchange
 for species   1 augmentation radius   1.239 (default was   0.991)
       energy cutoff for augmentation   1800.0
 Maximum index for augmentation-charges in exchange         2731
  SETUP_FOCK is finished

 total amount of memory used by VASP MPI-rank0    64654. kBytes
=======================================================================

   base      :      30000. kBytes
   nonl-proj :       7334. kBytes
   fftplans  :      13127. kBytes
   grid      :       5205. kBytes
   one-center:         31. kBytes
   HF        :         64. kBytes
   nonlr-proj:       1297. kBytes
   wavefun   :       7596. kBytes

     INWAV:  cpu time      1.0227: real time      1.0228
 charge density for first step will be calculated from the start-wavefunctions


--------------------------------------------------------------------------------------------------------


 Maximum index for augmentation-charges        70109 (set IRDMAX)


--------------------------------------------------------------------------------------------------------


 initial charge from wavefunction
 First call to EWALD:  gamma=   0.514
 Maximum number of real-space cells 3x 3x 3
 Maximum number of reciprocal cells 3x 3x 3

    FEWALD:  cpu time      0.0011: real time      0.0011
