    2    2    1    1
  0.2040120E+02  0.3864265E-09  0.3864265E-09  0.3864265E-09  0.5000000E-15
   1.0000000000000000E-004
  CAR 
 unknown system                          
      8     80      8

  0.5000000E+00  0.5000000E+00  0.5000000E+00  0.1250000E-01
      1         -3.792861   1.000000
      2         -1.143898   1.000000
      3          4.580911   1.000000
      4          4.580911   1.000000
      5          7.228382   0.000000
      6          9.078772   0.000000
      7          9.078772   0.000000
      8         13.417933   0.000000

  0.4736842E+00  0.4736842E+00  0.4736842E+00  0.1250000E-01
      1         -3.831796   1.000000
      2         -1.088732   1.000000
      3          4.585209   1.000000
      4          4.585209   1.000000
      5          7.233770   0.000000
      6          9.083567   0.000000
      7          9.083567   0.000000
      8         13.426145   0.000000

  0.4473684E+00  0.4473684E+00  0.4473684E+00  0.1250000E-01
      1         -3.938055   1.000000
      2         -0.931647   1.000000
      3          4.600070   1.000000
      4          4.600070   1.000000
      5          7.250846   0.000000
      6          9.099871   0.000000
      7          9.099871   0.000000
      8         13.451158   0.000000

  0.4210526E+00  0.4210526E+00  0.4210526E+00  0.1250000E-01
      1         -4.092213   1.000000
      2         -0.692918   1.000000
      3          4.624807   1.000000
      4          4.624807   1.000000
      5          7.279223   0.000000
      6          9.125555   0.000000
      7          9.125555   0.000000
      8         13.489563   0.000000

  0.3947368E+00  0.3947368E+00  0.3947368E+00  0.1250000E-01
      1         -4.274226   1.000000
      2         -0.392785   1.000000
      3          4.659401   1.000000
      4          4.659401   1.000000
      5          7.320038   0.000000
      6          9.158183   0.000000
      7          9.158183   0.000000
      8         13.534534   0.000000

  0.3684211E+00  0.3684211E+00  0.3684211E+00  0.1250000E-01
      1         -4.468986   1.000000
      2         -0.046811   1.000000
      3          4.703730   1.000000
      4          4.703730   1.000000
      5          7.370402   0.000000
      6          9.194070   0.000000
      7          9.194070   0.000000
      8         13.569865   0.000000

  0.3421053E+00  0.3421053E+00  0.3421053E+00  0.1250000E-01
      1         -4.666287   1.000000
      2          0.334443   1.000000
      3          4.757618   1.000000
      4          4.757618   1.000000
      5          7.431338   0.000000
      6          9.226696   0.000000
      7          9.226696   0.000000
      8         13.557888   0.000000

  0.3157895E+00  0.3157895E+00  0.3157895E+00  0.1250000E-01
      1         -4.859393   1.000000
      2          0.744979   1.000000
      3          4.821102   1.000000
      4          4.821102   1.000000
      5          7.502463   0.000000
      6          9.252480   0.000000
      7          9.252480   0.000000
      8         13.430614   0.000000

  0.2894737E+00  0.2894737E+00  0.2894737E+00  0.1250000E-01
      1         -5.044270   1.000000
      2          1.177366   1.000000
      3          4.893480   1.000000
      4          4.893480   1.000000
      5          7.582955   0.000000
      6          9.262137   0.000000
      7          9.262137   0.000000
      8         13.146039   0.000000

  0.2631579E+00  0.2631579E+00  0.2631579E+00  0.1250000E-01
      1         -5.217907   1.000000
      2          1.628808   1.000000
      3          4.974355   1.000000
      4          4.974355   1.000000
      5          7.671921   0.000000
      6          9.247742   0.000000
      7          9.247742   0.000000
      8         12.758038   0.000000

  0.2368421E+00  0.2368421E+00  0.2368421E+00  0.1250000E-01
      1         -5.378402   1.000000
      2          2.095972   1.000000
      3          5.062956   1.000000
      4          5.062956   1.000000
      5          7.766474   0.000000
      6          9.203754   0.000000
      7          9.203754   0.000000
      8         12.319099   0.000000

  0.2105263E+00  0.2105263E+00  0.2105263E+00  0.1250000E-01
      1         -5.524211   1.000000
      2          2.575650   1.000000
      3          5.158078   1.000000
      4          5.158078   1.000000
      5          7.866970   0.000000
      6          9.125862   0.000000
      7          9.125862   0.000000
      8         11.858128   0.000000

  0.1842105E+00  0.1842105E+00  0.1842105E+00  0.1250000E-01
      1         -5.654461   1.000000
      2          3.064269   1.000000
      3          5.258126   1.000000
      4          5.258126   1.000000
      5          7.970994   0.000000
      6          9.017957   0.000000
      7          9.017957   0.000000
      8         11.387672   0.000000

  0.1578947E+00  0.1578947E+00  0.1578947E+00  0.1250000E-01
      1         -5.768401   1.000000
      2          3.558069   1.000000
      3          5.361370   1.000000
      4          5.361370   1.000000
      5          8.074776   0.000000
      6          8.888780   0.000000
      7          8.888780   0.000000
      8         10.913383   0.000000

  0.1315789E+00  0.1315789E+00  0.1315789E+00  0.1250000E-01
      1         -5.865539   1.000000
      2          4.049560   1.000000
      3          5.463445   1.000000
      4          5.463445   1.000000
      5          8.172500   0.000000
      6          8.747331   0.000000
      7          8.747331   0.000000
      8         10.442066   0.000000

  0.1052632E+00  0.1052632E+00  0.1052632E+00  0.1250000E-01
      1         -5.945391   1.000000
      2          4.531256   1.000000
      3          5.561664   1.000000
      4          5.561664   1.000000
      5          8.258099   0.000000
      6          8.607350   0.000000
      7          8.607350   0.000000
      8          9.985494   0.000000

  0.7894737E-01  0.7894737E-01  0.7894737E-01  0.1250000E-01
      1         -6.007900   1.000000
      2          4.984011   1.000000
      3          5.647542   1.000000
      4          5.647542   1.000000
      5          8.319770   0.000000
      6          8.479744   0.000000
      7          8.479744   0.000000
      8          9.564211   0.000000

  0.5263158E-01  0.5263158E-01  0.5263158E-01  0.1250000E-01
      1         -6.052637   1.000000
      2          5.380577   1.000000
      3          5.717009   1.000000
      4          5.717009   1.000000
      5          8.341764   0.000000
      6          8.377849   0.000000
      7          8.377849   0.000000
      8          9.218078   0.000000

  0.2631579E-01  0.2631579E-01  0.2631579E-01  0.1250000E-01
      1         -6.079547   1.000000
      2          5.668706   1.000000
      3          5.762409   1.000000
      4          5.762409   1.000000
      5          8.311637   0.000000
      6          8.311637   0.000000
      7          8.315119   0.000000
      8          9.001605   0.000000

  0.2775558E-16  0.2775558E-16  0.2775558E-16  0.1250000E-01
      1         -6.088506   1.000000
      2          5.778237   1.000000
      3          5.778252   1.000000
      4          5.778252   1.000000
      5          8.288620   0.000000
      6          8.288636   0.000000
      7          8.288636   0.000000
      8          8.934374   0.000000

  0.0000000E+00  0.0000000E+00  0.0000000E+00  0.1250000E-01
      1         -6.088506   1.000000
      2          5.778237   1.000000
      3          5.778252   1.000000
      4          5.778252   1.000000
      5          8.288620   0.000000
      6          8.288636   0.000000
      7          8.288636   0.000000
      8          8.934374   0.000000

  0.2631579E-01  0.0000000E+00  0.2631579E-01  0.1250000E-01
      1         -6.076557   1.000000
      2          5.693123   1.000000
      3          5.726203   1.000000
      4          5.726212   1.000000
      5          8.258965   0.000000
      6          8.355472   0.000000
      7          8.355483   0.000000
      8          9.017585   0.000000

  0.5263158E-01  0.0000000E+00  0.5263158E-01  0.1250000E-01
      1         -6.040591   1.000000
      2          5.462415   1.000000
      3          5.585656   1.000000
      4          5.585666   1.000000
      5          8.173981   0.000000
      6          8.541699   0.000000
      7          8.541709   0.000000
      8          9.239967   0.000000

  0.7894737E-01  0.0000000E+00  0.7894737E-01  0.1250000E-01
      1         -5.980848   1.000000
      2          5.131768   1.000000
      3          5.385723   1.000000
      4          5.385733   1.000000
      5          8.043476   0.000000
      6          8.815290   0.000000
      7          8.815300   0.000000
      8          9.539305   0.000000

  0.1052632E+00  0.0000000E+00  0.1052632E+00  0.1250000E-01
      1         -5.897368   1.000000
      2          4.741410   1.000000
      3          5.154998   1.000000
      4          5.155007   1.000000
      5          7.880479   0.000000
      6          9.148383   0.000000
      7          9.148394   0.000000
      8          9.840755   0.000000

  0.1315789E+00  0.0000000E+00  0.1315789E+00  0.1250000E-01
      1         -5.790307   1.000000
      2          4.316598   1.000000
      3          4.910612   1.000000
      4          4.910621   1.000000
      5          7.697131   0.000000
      6          9.521028   0.000000
      7          9.521039   0.000000
      8         10.042661   0.000000

  0.1578947E+00  0.0000000E+00  0.1578947E+00  0.1250000E-01
      1         -5.659699   1.000000
      2          3.871742   1.000000
      3          4.667391   1.000000
      4          4.667400   1.000000
      5          7.505647   0.000000
      6          9.921657   0.000000
      7          9.921668   0.000000
      8         10.028233   0.000000

  0.1842105E+00  0.0000000E+00  0.1842105E+00  0.1250000E-01
      1         -5.505844   1.000000
      2          3.415542   1.000000
      3          4.431025   1.000000
      4          4.431034   1.000000
      5          7.314133   0.000000
      6          9.795826   0.000000
      7         10.344022   0.000000
      8         10.344034   0.000000

  0.2105263E+00  0.0000000E+00  0.2105263E+00  0.1250000E-01
      1         -5.329005   1.000000
      2          2.952376   1.000000
      3          4.205935   1.000000
      4          4.205943   1.000000
      5          7.129407   0.000000
      6          9.448505   0.000000
      7         10.783254   0.000000
      8         10.783267   0.000000

  0.2368421E+00  0.0000000E+00  0.2368421E+00  0.1250000E-01
      1         -5.129468   1.000000
      2          2.485254   1.000000
      3          3.994981   1.000000
      4          3.994990   1.000000
      5          6.956512   0.000000
      6          9.061020   0.000000
      7         11.232028   0.000000
      8         11.232040   0.000000

  0.2631579E+00  0.0000000E+00  0.2631579E+00  0.1250000E-01
      1         -4.907598   1.000000
      2          2.016599   1.000000
      3          3.800591   1.000000
      4          3.800600   1.000000
      5          6.799500   0.000000
      6          8.672798   0.000000
      7         11.691469   0.000000
      8         11.691482   0.000000

  0.2894737E+00  0.0000000E+00  0.2894737E+00  0.1250000E-01
      1         -4.663716   1.000000
      2          1.548159   1.000000
      3          3.624157   1.000000
      4          3.624166   1.000000
      5          6.662139   0.000000
      6          8.302081   0.000000
      7         12.162869   0.000000
      8         12.162882   0.000000

  0.3157895E+00  0.0000000E+00  0.3157895E+00  0.1250000E-01
      1         -4.398529   1.000000
      2          1.081481   1.000000
      3          3.466546   1.000000
      4          3.466554   1.000000
      5          6.545558   0.000000
      6          7.956997   0.000000
      7         12.637082   0.000000
      8         12.637096   0.000000

  0.3421053E+00  0.0000000E+00  0.3421053E+00  0.1250000E-01
      1         -4.112512   1.000000
      2          0.618132   1.000000
      3          3.327898   1.000000
      4          3.327907   1.000000
      5          6.452462   0.000000
      6          7.642144   0.000000
      7         13.116840   0.000000
      8         13.116854   0.000000

  0.3684211E+00  0.0000000E+00  0.3684211E+00  0.1250000E-01
      1         -3.805823   1.000000
      2          0.159892   1.000000
      3          3.210486   1.000000
      4          3.210495   1.000000
      5          6.385750   0.000000
      6          7.361169   0.000000
      7         13.602412   0.000000
      8         13.602427   0.000000

  0.3947368E+00  0.0000000E+00  0.3947368E+00  0.1250000E-01
      1         -3.480056   1.000000
      2         -0.292442   1.000000
      3          3.113650   1.000000
      4          3.113658   1.000000
      5          6.344448   0.000000
      6          7.113286   0.000000
      7         14.089646   0.000000
      8         14.089660   0.000000

  0.4210526E+00  0.0000000E+00  0.4210526E+00  0.1250000E-01
      1         -3.135496   1.000000
      2         -0.735605   1.000000
      3          3.038308   1.000000
      4          3.038317   1.000000
      5          6.332013   0.000000
      6          6.901860   0.000000
      7         14.585307   0.000000
      8         14.585319   0.000000

  0.4473684E+00  0.0000000E+00  0.4473684E+00  0.1250000E-01
      1         -2.773262   1.000000
      2         -1.168953   1.000000
      3          2.984210   1.000000
      4          2.984218   1.000000
      5          6.347952   0.000000
      6          6.724726   0.000000
      7         15.062992   0.000000
      8         15.063004   0.000000

  0.4736842E+00  0.0000000E+00  0.4736842E+00  0.1250000E-01
      1         -2.394301   1.000000
      2         -1.590801   1.000000
      3          2.951671   1.000000
      4          2.951679   1.000000
      5          6.394227   0.000000
      6          6.581593   0.000000
      7         15.493676   0.000000
      8         15.493689   0.000000

  0.5000000E+00  0.0000000E+00  0.5000000E+00  0.1250000E-01
      1         -1.999678   1.000000
      2         -1.999678   1.000000
      3          2.941206   1.000000
      4          2.941214   1.000000
      5          6.472793   0.000000
      6          6.472812   0.000000
      7         15.718594   0.000000
      8         15.718605   0.000000

  0.5000000E+00  0.0000000E+00  0.5000000E+00  0.1250000E-01
      1         -1.999678   1.000000
      2         -1.999678   1.000000
      3          2.941206   1.000000
      4          2.941214   1.000000
      5          6.472793   0.000000
      6          6.472812   0.000000
      7         15.718594   0.000000
      8         15.718607   0.000000

  0.5065789E+00  0.1315789E-01  0.5065789E+00  0.1250000E-01
      1         -2.000308   1.000000
      2         -1.998057   1.000000
      3          2.930872   1.000000
      4          2.942419   1.000000
      5          6.474176   0.000000
      6          6.488140   0.000000
      7         15.702304   0.000000
      8         15.709423   0.000000

  0.5131579E+00  0.2631579E-01  0.5131579E+00  0.1250000E-01
      1         -2.002272   1.000000
      2         -1.993196   1.000000
      3          2.900069   1.000000
      4          2.945943   1.000000
      5          6.478317   0.000000
      6          6.532871   0.000000
      7         15.653363   0.000000
      8         15.680297   0.000000

  0.5197368E+00  0.3947368E-01  0.5197368E+00  0.1250000E-01
      1         -2.005533   1.000000
      2         -1.985135   1.000000
      3          2.851151   1.000000
      4          2.951659   1.000000
      5          6.484402   0.000000
      6          6.606744   0.000000
      7         15.574262   0.000000
      8         15.635417   0.000000

  0.5263158E+00  0.5263158E-01  0.5263158E+00  0.1250000E-01
      1         -2.010230   1.000000
      2         -1.973790   1.000000
      3          2.786459   1.000000
      4          2.960089   1.000000
      5          6.494058   0.000000
      6          6.706662   0.000000
      7         15.474927   0.000000
      8         15.575863   0.000000

  0.5328947E+00  0.6578947E-01  0.5328947E+00  0.1250000E-01
      1         -2.016615   1.000000
      2         -1.959205   1.000000
      3          2.708505   1.000000
      4          2.970912   1.000000
      5          6.506462   0.000000
      6          6.828790   0.000000
      7         15.357230   0.000000
      8         15.502692   0.000000

  0.5394737E+00  0.7894737E-01  0.5394737E+00  0.1250000E-01
      1         -2.024641   1.000000
      2         -1.941381   1.000000
      3          2.620808   1.000000
      4          2.984119   1.000000
      5          6.521602   0.000000
      6          6.972421   0.000000
      7         15.225423   0.000000
      8         15.417766   0.000000

  0.5460526E+00  0.9210526E-01  0.5460526E+00  0.1250000E-01
      1         -2.034640   1.000000
      2         -1.920324   1.000000
      3          2.525818   1.000000
      4          2.999666   1.000000
      5          6.538822   0.000000
      6          7.133816   0.000000
      7         15.082614   0.000000
      8         15.322555   0.000000

  0.5526316E+00  0.1052632E+00  0.5526316E+00  0.1250000E-01
      1         -2.046827   1.000000
      2         -1.896030   1.000000
      3          2.426422   1.000000
      4          3.017607   1.000000
      5          6.559383   0.000000
      6          7.310608   0.000000
      7         14.932375   0.000000
      8         15.219536   0.000000

  0.5592105E+00  0.1184211E+00  0.5592105E+00  0.1250000E-01
      1         -2.061492   1.000000
      2         -1.868503   1.000000
      3          2.324624   1.000000
      4          3.037889   1.000000
      5          6.582637   0.000000
      6          7.500718   0.000000
      7         14.774718   0.000000
      8         15.109920   0.000000

  0.5657895E+00  0.1315789E+00  0.5657895E+00  0.1250000E-01
      1         -2.078937   1.000000
      2         -1.837747   1.000000
      3          2.222704   1.000000
      4          3.060493   1.000000
      5          6.608562   0.000000
      6          7.702477   0.000000
      7         14.614720   0.000000
      8         14.994507   0.000000

  0.5723684E+00  0.1447368E+00  0.5723684E+00  0.1250000E-01
      1         -2.099481   1.000000
      2         -1.803763   1.000000
      3          2.122255   1.000000
      4          3.085398   1.000000
      5          6.637135   0.000000
      6          7.914400   0.000000
      7         14.452025   0.000000
      8         14.875054   0.000000

  0.5789474E+00  0.1578947E+00  0.5789474E+00  0.1250000E-01
      1         -2.123459   1.000000
      2         -1.766556   1.000000
      3          2.024766   1.000000
      4          3.112579   1.000000
      5          6.668330   0.000000
      6          8.135276   0.000000
      7         14.287624   0.000000
      8         14.752198   0.000000

  0.5855263E+00  0.1710526E+00  0.5855263E+00  0.1250000E-01
      1         -2.151199   1.000000
      2         -1.726129   1.000000
      3          1.931531   1.000000
      4          3.142008   1.000000
      5          6.702118   0.000000
      6          8.364086   0.000000
      7         14.122296   0.000000
      8         14.628727   0.000000

  0.5921053E+00  0.1842105E+00  0.5921053E+00  0.1250000E-01
      1         -2.183018   1.000000
      2         -1.682486   1.000000
      3          1.843658   1.000000
      4          3.173657   1.000000
      5          6.738465   0.000000
      6          8.599973   0.000000
      7         13.956658   0.000000
      8         14.503262   0.000000

  0.5986842E+00  0.1973684E+00  0.5986842E+00  0.1250000E-01
      1         -2.219209   1.000000
      2         -1.635633   1.000000
      3          1.762089   1.000000
      4          3.207492   1.000000
      5          6.777334   0.000000
      6          8.842197   0.000000
      7         13.791203   0.000000
      8         14.373077   0.000000

  0.6052632E+00  0.2105263E+00  0.6052632E+00  0.1250000E-01
      1         -2.260024   1.000000
      2         -1.585575   1.000000
      3          1.687614   1.000000
      4          3.243474   1.000000
      5          6.818683   0.000000
      6          9.090112   0.000000
      7         13.626326   0.000000
      8         14.238357   0.000000

  0.6118421E+00  0.2236842E+00  0.6118421E+00  0.1250000E-01
      1         -2.305998   1.000000
      2         -1.532352   1.000000
      3          1.620524   1.000000
      4          3.281567   1.000000
      5          6.862364   0.000000
      6          9.341550   0.000000
      7         13.461965   0.000000
      8         14.064577   0.000000

  0.6184211E+00  0.2368421E+00  0.6184211E+00  0.1250000E-01
      1         -2.356597   1.000000
      2         -1.475896   1.000000
      3          1.562065   1.000000
      4          3.321728   1.000000
      5          6.908528   0.000000
      6          9.599058   0.000000
      7         13.299180   0.000000
      8         13.887382   0.000000

  0.6250000E+00  0.2500000E+00  0.6250000E+00  0.1250000E-01
      1         -2.412196   1.000000
      2         -1.416248   1.000000
      3          1.512221   1.000000
      4          3.363911   1.000000
      5          6.957019   0.000000
      6          9.860571   0.000000
      7         13.137805   0.000000
      8         13.716859   0.000000

  0.3750000E+00  0.3750000E+00  0.7500000E+00  0.1250000E-01
      1         -2.412196   1.000000
      2         -1.416248   1.000000
      3          1.512221   1.000000
      4          3.363911   1.000000
      5          6.957019   0.000000
      6          9.860571   0.000000
      7         13.137805   0.000000
      8         13.716799   0.000000

  0.3552632E+00  0.3552632E+00  0.7105263E+00  0.1250000E-01
      1         -2.608315   1.000000
      2         -1.218278   1.000000
      3          1.416115   1.000000
      4          3.502057   1.000000
      5          7.115572   0.000000
      6         10.662585   0.000000
      7         12.663913   0.000000
      8         13.226291   0.000000

  0.3355263E+00  0.3355263E+00  0.6710526E+00  0.1250000E-01
      1         -2.843614   1.000000
      2         -0.991154   1.000000
      3          1.399638   1.000000
      4          3.656523   1.000000
      5          7.292871   0.000000
      6         11.462896   0.000000
      7         12.209489   0.000000
      8         12.797398   0.000000

  0.3157895E+00  0.3157895E+00  0.6315789E+00  0.1250000E-01
      1         -3.109201   1.000000
      2         -0.736377   1.000000
      3          1.455579   1.000000
      4          3.824787   1.000000
      5          7.485165   0.000000
      6         11.771630   0.000000
      7         11.975779   0.000000
      8         12.695963   0.000000

  0.2960526E+00  0.2960526E+00  0.5921053E+00  0.1250000E-01
      1         -3.393294   1.000000
      2         -0.453623   1.000000
      3          1.575388   1.000000
      4          4.004360   1.000000
      5          7.688815   0.000000
      6         11.358275   0.000000
      7         11.731088   0.000000
      8         12.427039   0.000000

  0.2763158E+00  0.2763158E+00  0.5526316E+00  0.1250000E-01
      1         -3.685666   1.000000
      2         -0.143219   1.000000
      3          1.749447   1.000000
      4          4.192879   1.000000
      5          7.898449   0.000000
      6         10.969214   0.000000
      7         11.357780   0.000000
      8         12.132794   0.000000

  0.2565789E+00  0.2565789E+00  0.5131579E+00  0.1250000E-01
      1         -3.977592   1.000000
      2          0.194503   1.000000
      3          1.969517   1.000000
      4          4.386614   1.000000
      5          8.104681   0.000000
      6         10.604011   0.000000
      7         10.987217   0.000000
      8         11.875413   0.000000

  0.2368421E+00  0.2368421E+00  0.4736842E+00  0.1250000E-01
      1         -4.262577   1.000000
      2          0.559387   1.000000
      3          2.228411   1.000000
      4          4.581265   1.000000
      5          8.301382   0.000000
      6         10.264472   0.000000
      7         10.637180   0.000000
      8         11.663511   0.000000

  0.2171053E+00  0.2171053E+00  0.4342105E+00  0.1250000E-01
      1         -4.535160   1.000000
      2          0.950018   1.000000
      3          2.520079   1.000000
      4          4.772138   1.000000
      5          8.474369   0.000000
      6          9.952219   0.000000
      7         10.308998   0.000000
      8         11.504478   0.000000

  0.1973684E+00  0.1973684E+00  0.3947368E+00  0.1250000E-01
      1         -4.791648   1.000000
      2          1.365938   1.000000
      3          2.838850   1.000000
      4          4.954430   1.000000
      5          8.610540   0.000000
      6          9.664981   0.000000
      7         10.006012   0.000000
      8         11.402034   0.000000

  0.1776316E+00  0.1776316E+00  0.3552632E+00  0.1250000E-01
      1         -5.029158   1.000000
      2          1.806446   1.000000
      3          3.180591   1.000000
      4          5.123504   1.000000
      5          8.700230   0.000000
      6          9.404421   0.000000
      7          9.727380   0.000000
      8         11.352960   0.000000

  0.1578947E+00  0.1578947E+00  0.3157895E+00  0.1250000E-01
      1         -5.245811   1.000000
      2          2.269454   1.000000
      3          3.538360   1.000000
      4          5.275159   1.000000
      5          8.740600   0.000000
      6          9.170638   0.000000
      7          9.467928   0.000000
      8         11.333265   0.000000

  0.1381579E+00  0.1381579E+00  0.2763158E+00  0.1250000E-01
      1         -5.439632   1.000000
      2          2.753873   1.000000
      3          3.906970   1.000000
      4          5.408016   1.000000
      5          8.739749   0.000000
      6          8.966062   0.000000
      7          9.234663   0.000000
      8         11.289270   0.000000

  0.1184211E+00  0.1184211E+00  0.2368421E+00  0.1250000E-01
      1         -5.609567   1.000000
      2          3.256059   1.000000
      3          4.278401   1.000000
      4          5.517410   1.000000
      5          8.709130   0.000000
      6          8.786619   0.000000
      7          9.022975   0.000000
      8         11.135632   0.000000

  0.9868421E-01  0.9868421E-01  0.1973684E+00  0.1250000E-01
      1         -5.754688   1.000000
      2          3.771488   1.000000
      3          4.643321   1.000000
      4          5.604923   1.000000
      5          8.634580   0.000000
      6          8.660795   0.000000
      7          8.832241   0.000000
      8         10.807384   0.000000

  0.7894737E-01  0.7894737E-01  0.1578947E+00  0.1250000E-01
      1         -5.874186   1.000000
      2          4.293757   1.000000
      3          4.989743   1.000000
      4          5.672206   1.000000
      5          8.510466   0.000000
      6          8.604057   0.000000
      7          8.663549   0.000000
      8         10.337069   0.000000

  0.5921053E-01  0.5921053E-01  0.1184211E+00  0.1250000E-01
      1         -5.967658   1.000000
      2          4.804041   1.000000
      3          5.299483   1.000000
      4          5.721200   1.000000
      5          8.413460   0.000000
      6          8.516461   0.000000
      7          8.539176   0.000000
      8          9.817749   0.000000

  0.3947368E-01  0.3947368E-01  0.7894737E-01  0.1250000E-01
      1         -6.034693   1.000000
      2          5.273031   1.000000
      3          5.551940   1.000000
      4          5.753681   1.000000
      5          8.344127   0.000000
      6          8.397602   0.000000
      7          8.459147   0.000000
      8          9.348514   0.000000

  0.1973684E-01  0.1973684E-01  0.3947368E-01  0.1250000E-01
      1         -6.075064   1.000000
      2          5.633931   1.000000
      3          5.719020   1.000000
      4          5.772232   1.000000
      5          8.302511   0.000000
      6          8.317265   0.000000
      7          8.353043   0.000000
      8          9.034796   0.000000

  0.2081668E-16  0.2081668E-16  0.4163336E-16  0.1250000E-01
      1         -6.088506   1.000000
      2          5.778237   1.000000
      3          5.778252   1.000000
      4          5.778252   1.000000
      5          8.288620   0.000000
      6          8.288636   0.000000
      7          8.288636   0.000000
      8          8.934374   0.000000
