       N       E                     dE             d eps       ncg     rms          rms(c)
DAV:   1    -0.691823365432E+01   -0.69182E+01   -0.39419E-12  1552   0.645E-06
DAV:   2    -0.691823365432E+01    0.00000E+00    0.69103E-14  1384   0.123E-06
   1 F= -.69182337E+01 E0= -.69182337E+01  d E =-.617466E-11
