 vasp.6.3.2 27Jun22 (build Nov 28 2025 11:56:12) complex                         
 executed on             LinuxGNU date 2025.12.09  22:00:27
 running    2 mpi-ranks, with    1 threads/rank
 distrk:  each k-point on    2 cores,    1 groups
 distr:  one band on NCORE=   1 cores,    2 groups


--------------------------------------------------------------------------------------------------------


 INCAR:
   ISTART = 1            (Read existing wavefunction, if there)
   ISPIN = 1            (Non-Spin polarised DFT)
   ICHARG = 11           (Non-self-consistent: GGA/LDA band structures)
   LREAL = .FALSE.       (Projection operators: automatic)
   LWAVE = .TRUE.        (Write WAVECAR or not)
   LCHARG = .TRUE.        (Write CHGCAR or not)
   ADDGRID = .TRUE.        (Increase grid, helps GGA convergence)
   ISMEAR = 0            (gaussian smearing method)
   SIGMA = 0.05         (please check the width of the smearing)
   LORBIT = 11           (PAW radii for projected DOS)
   NEDOS = 2001         (DOSCAR points)
   NELM = 60           (Max electronic SCF steps)
   EDIFF = 1E-08        (SCF energy convergence, in eV)

 POTCAR:    PAW_PBE Si 05Jan2001                  
 POTCAR:    PAW_PBE Si 05Jan2001                  
   VRHFIN =Si: s2p2                                                                                 
   LEXCH  = PE                                                                                      
   EATOM  =   103.0669 eV,    7.5752 Ry                                                             
                                                                                                    
   TITEL  = PAW_PBE Si 05Jan2001                                                                    
   LULTRA =        F    use ultrasoft PP ?                                                          
   IUNSCR =        1    unscreen: 0-lin 1-nonlin 2-no                                               
   RPACOR =    1.500    partial core radius                                                         
   POMASS =   28.085; ZVAL   =    4.000    mass and valenz                                          
   RCORE  =    1.900    outmost cutoff radius                                                       
   RWIGS  =    2.480; RWIGS  =    1.312    wigner-seitz radius (au A)                               
   ENMAX  =  245.345; ENMIN  =  184.009 eV                                                          
   ICORE  =        2    local potential                                                             
   LCOR   =        T    correct aug charges                                                         
   LPAW   =        T    paw PP                                                                      
   EAUG   =  322.069                                                                                
   DEXC   =    0.000                                                                                
   RMAX   =    1.950    core radius for proj-oper                                                   
   RAUG   =    1.300    factor for augmentation sphere                                              
   RDEP   =    1.993    radius for radial grids                                                     
   RDEPT  =    1.837    core radius for aug-charge                                                  
                                                                                                    
   Atomic configuration                                                                             
    6 entries                                                                                       
     n  l   j            E        occ.                                                              
     1  0  0.50     -1785.8828   2.0000                                                             
     2  0  0.50      -139.4969   2.0000                                                             
     2  1  1.50       -95.5546   6.0000                                                             
     3  0  0.50       -10.8127   2.0000                                                             
     3  1  0.50        -4.0811   2.0000                                                             
     3  2  1.50        -4.0817   0.0000                                                             
   Description                                                                                      
     l       E           TYP  RCUT    TYP  RCUT                                                     
     0    -10.8127223     23  1.900                                                                 
     0     -7.6451159     23  1.900                                                                 
     1     -4.0811372     23  1.900                                                                 
     1      2.4879257     23  1.900                                                                 
     2     -4.0817478      7  1.900                                                                 
  local pseudopotential read in
  partial core-charges read in
  partial kinetic energy density read in
  atomic valenz-charges read in
  non local Contribution for L=           0  read in
    real space projection operators read in
  non local Contribution for L=           0  read in
    real space projection operators read in
  non local Contribution for L=           1  read in
    real space projection operators read in
  non local Contribution for L=           1  read in
    real space projection operators read in
    PAW grid and wavefunctions read in

   number of l-projection  operators is LMAX  =           4
   number of lm-projection operators is LMMAX =           8

  PAW_PBE Si 05Jan2001                  :
 energy of atom  1       EATOM= -103.0669
 kinetic energy error for atom=    0.0056 (will be added to EATOM!!)


 POSCAR: cubic diamond Si
  positions in direct lattice
  No initial velocities read in
 exchange correlation table for  LEXCH =        8
   RHO(1)=    0.500       N(1)  =     2000
   RHO(2)=  100.500       N(2)  =     4000



--------------------------------------------------------------------------------------------------------


 ion  position               nearest neighbor table
   1  0.875  0.875  0.875-   2 2.37   2 2.37   2 2.37   2 2.37
   2  0.125  0.125  0.125-   1 2.37   1 2.37   1 2.37   1 2.37

  LATTYP: Found a face centered cubic cell.
 ALAT       =     5.4648957000
  
  Lattice vectors:
  
 A1 = (   0.0000000000,   2.7324478500,   2.7324478500)
 A2 = (   2.7324478500,   0.0000000000,   2.7324478500)
 A3 = (   2.7324478500,   2.7324478500,   0.0000000000)


Analysis of symmetry for initial positions (statically):
=====================================================================
 Subroutine PRICEL returns:
 Original cell was already a primitive cell.
 

 Routine SETGRP: Setting up the symmetry group for a 
 face centered cubic supercell.


 Subroutine GETGRP returns: Found 48 space group operations
 (whereof 12 operations were pure point group operations)
 out of a pool of 48 trial point group operations.


The static configuration has the point symmetry D_3d.
 The point group associated with its full space group is O_h .


Analysis of symmetry for dynamics (positions and initial velocities):
=====================================================================
 Subroutine PRICEL returns:
 Original cell was already a primitive cell.
 

 Routine SETGRP: Setting up the symmetry group for a 
 face centered cubic supercell.


 Subroutine GETGRP returns: Found 48 space group operations
 (whereof 12 operations were pure point group operations)
 out of a pool of 48 trial point group operations.


The dynamic configuration has the point symmetry D_3d.
 The point group associated with its full space group is O_h .


 Subroutine INISYM returns: Found 48 space group operations
 (whereof 12 operations are pure point group operations),
 and found     1 'primitive' translations


----------------------------------------------------------------------------------------

                                     Primitive cell                                     

  volume of cell :      40.8024

  direct lattice vectors                    reciprocal lattice vectors
     0.000000000  2.732447850  2.732447850    -0.182986109  0.182986109  0.182986109
     2.732447850  0.000000000  2.732447850     0.182986109 -0.182986109  0.182986109
     2.732447850  2.732447850  0.000000000     0.182986109  0.182986109 -0.182986109

  length of vectors
     3.864264808  3.864264808  3.864264808     0.316941238  0.316941238  0.316941238

  position of ions in fractional coordinates (direct lattice)
     0.875000000  0.875000000  0.875000000
     0.125000000  0.125000000  0.125000000

  ion indices of the primitive-cell ions
   primitive index   ion index
                 1           1
                 2           2

----------------------------------------------------------------------------------------



 KPOINTS: K-Path Generated by VASPKIT.            

Interpolating k-points between supplied coordinates.

 Line segments in fractional coordinates (reciprocal lattice):
    0.500000  0.500000  0.500000  ...  0.000000  0.000000  0.000000
    0.000000  0.000000  0.000000  ...  0.500000  0.000000  0.500000
    0.500000  0.000000  0.500000  ...  0.625000  0.250000  0.625000
    0.375000  0.375000  0.750000  ...  0.000000  0.000000  0.000000

 Generated    20 points on each line segment, for a total of     80 k-points:

 Following reciprocal coordinates:
            Coordinates               Weight
  0.500000  0.500000  0.500000      0.012500
  0.473684  0.473684  0.473684      0.012500
  0.447368  0.447368  0.447368      0.012500
  0.421053  0.421053  0.421053      0.012500
  0.394737  0.394737  0.394737      0.012500
  0.368421  0.368421  0.368421      0.012500
  0.342105  0.342105  0.342105      0.012500
  0.315789  0.315789  0.315789      0.012500
  0.289474  0.289474  0.289474      0.012500
  0.263158  0.263158  0.263158      0.012500
  0.236842  0.236842  0.236842      0.012500
  0.210526  0.210526  0.210526      0.012500
  0.184211  0.184211  0.184211      0.012500
  0.157895  0.157895  0.157895      0.012500
  0.131579  0.131579  0.131579      0.012500
  0.105263  0.105263  0.105263      0.012500
  0.078947  0.078947  0.078947      0.012500
  0.052632  0.052632  0.052632      0.012500
  0.026316  0.026316  0.026316      0.012500
  0.000000  0.000000  0.000000      0.012500
  0.000000  0.000000  0.000000      0.012500
  0.026316  0.000000  0.026316      0.012500
  0.052632  0.000000  0.052632      0.012500
  0.078947  0.000000  0.078947      0.012500
  0.105263  0.000000  0.105263      0.012500
  0.131579  0.000000  0.131579      0.012500
  0.157895  0.000000  0.157895      0.012500
  0.184211  0.000000  0.184211      0.012500
  0.210526  0.000000  0.210526      0.012500
  0.236842  0.000000  0.236842      0.012500
  0.263158  0.000000  0.263158      0.012500
  0.289474  0.000000  0.289474      0.012500
  0.315789  0.000000  0.315789      0.012500
  0.342105  0.000000  0.342105      0.012500
  0.368421  0.000000  0.368421      0.012500
  0.394737  0.000000  0.394737      0.012500
  0.421053  0.000000  0.421053      0.012500
  0.447368  0.000000  0.447368      0.012500
  0.473684  0.000000  0.473684      0.012500
  0.500000  0.000000  0.500000      0.012500
  0.500000  0.000000  0.500000      0.012500
  0.506579  0.013158  0.506579      0.012500
  0.513158  0.026316  0.513158      0.012500
  0.519737  0.039474  0.519737      0.012500
  0.526316  0.052632  0.526316      0.012500
  0.532895  0.065789  0.532895      0.012500
  0.539474  0.078947  0.539474      0.012500
  0.546053  0.092105  0.546053      0.012500
  0.552632  0.105263  0.552632      0.012500
  0.559211  0.118421  0.559211      0.012500
  0.565789  0.131579  0.565789      0.012500
  0.572368  0.144737  0.572368      0.012500
  0.578947  0.157895  0.578947      0.012500
  0.585526  0.171053  0.585526      0.012500
  0.592105  0.184211  0.592105      0.012500
  0.598684  0.197368  0.598684      0.012500
  0.605263  0.210526  0.605263      0.012500
  0.611842  0.223684  0.611842      0.012500
  0.618421  0.236842  0.618421      0.012500
  0.625000  0.250000  0.625000      0.012500
  0.375000  0.375000  0.750000      0.012500
  0.355263  0.355263  0.710526      0.012500
  0.335526  0.335526  0.671053      0.012500
  0.315789  0.315789  0.631579      0.012500
  0.296053  0.296053  0.592105      0.012500
  0.276316  0.276316  0.552632      0.012500
  0.256579  0.256579  0.513158      0.012500
  0.236842  0.236842  0.473684      0.012500
  0.217105  0.217105  0.434211      0.012500
  0.197368  0.197368  0.394737      0.012500
  0.177632  0.177632  0.355263      0.012500
  0.157895  0.157895  0.315789      0.012500
  0.138158  0.138158  0.276316      0.012500
  0.118421  0.118421  0.236842      0.012500
  0.098684  0.098684  0.197368      0.012500
  0.078947  0.078947  0.157895      0.012500
  0.059211  0.059211  0.118421      0.012500
  0.039474  0.039474  0.078947      0.012500
  0.019737  0.019737  0.039474      0.012500
  0.000000  0.000000  0.000000      0.012500

 Following cartesian coordinates:
            Coordinates               Weight
  0.500000  0.500000  0.500000      0.012500
  0.473684  0.473684  0.473684      0.012500
  0.447368  0.447368  0.447368      0.012500
  0.421053  0.421053  0.421053      0.012500
  0.394737  0.394737  0.394737      0.012500
  0.368421  0.368421  0.368421      0.012500
  0.342105  0.342105  0.342105      0.012500
  0.315789  0.315789  0.315789      0.012500
  0.289474  0.289474  0.289474      0.012500
  0.263158  0.263158  0.263158      0.012500
  0.236842  0.236842  0.236842      0.012500
  0.210526  0.210526  0.210526      0.012500
  0.184211  0.184211  0.184211      0.012500
  0.157895  0.157895  0.157895      0.012500
  0.131579  0.131579  0.131579      0.012500
  0.105263  0.105263  0.105263      0.012500
  0.078947  0.078947  0.078947      0.012500
  0.052632  0.052632  0.052632      0.012500
  0.026316  0.026316  0.026316      0.012500
  0.000000  0.000000  0.000000      0.012500
  0.000000  0.000000  0.000000      0.012500
 -0.000000  0.052632  0.000000      0.012500
 -0.000000  0.105263  0.000000      0.012500
 -0.000000  0.157895  0.000000      0.012500
 -0.000000  0.210526  0.000000      0.012500
 -0.000000  0.263158  0.000000      0.012500
 -0.000000  0.315789  0.000000      0.012500
  0.000000  0.368421 -0.000000      0.012500
 -0.000000  0.421053  0.000000      0.012500
 -0.000000  0.473684  0.000000      0.012500
 -0.000000  0.526316  0.000000      0.012500
  0.000000  0.578947 -0.000000      0.012500
 -0.000000  0.631579  0.000000      0.012500
  0.000000  0.684211 -0.000000      0.012500
  0.000000  0.736842 -0.000000      0.012500
 -0.000000  0.789474  0.000000      0.012500
 -0.000000  0.842105  0.000000      0.012500
  0.000000  0.894737 -0.000000      0.012500
 -0.000000  0.947368  0.000000      0.012500
  0.000000  1.000000  0.000000      0.012500
  0.000000  1.000000  0.000000      0.012500
  0.013158  1.000000  0.013158      0.012500
  0.026316  1.000000  0.026316      0.012500
  0.039474  1.000000  0.039474      0.012500
  0.052632  1.000000  0.052632      0.012500
  0.065789  1.000000  0.065789      0.012500
  0.078947  1.000000  0.078947      0.012500
  0.092105  1.000000  0.092105      0.012500
  0.105263  1.000000  0.105263      0.012500
  0.118421  1.000000  0.118421      0.012500
  0.131579  1.000000  0.131579      0.012500
  0.144737  1.000000  0.144737      0.012500
  0.157895  1.000000  0.157895      0.012500
  0.171053  1.000000  0.171053      0.012500
  0.184211  1.000000  0.184211      0.012500
  0.197368  1.000000  0.197368      0.012500
  0.210526  1.000000  0.210526      0.012500
  0.223684  1.000000  0.223684      0.012500
  0.236842  1.000000  0.236842      0.012500
  0.250000  1.000000  0.250000      0.012500
  0.750000  0.750000  0.000000      0.012500
  0.710526  0.710526 -0.000000      0.012500
  0.671053  0.671053  0.000000      0.012500
  0.631579  0.631579  0.000000      0.012500
  0.592105  0.592105 -0.000000      0.012500
  0.552632  0.552632  0.000000      0.012500
  0.513158  0.513158 -0.000000      0.012500
  0.473684  0.473684 -0.000000      0.012500
  0.434211  0.434211  0.000000      0.012500
  0.394737  0.394737  0.000000      0.012500
  0.355263  0.355263 -0.000000      0.012500
  0.315789  0.315789 -0.000000      0.012500
  0.276316  0.276316  0.000000      0.012500
  0.236842  0.236842 -0.000000      0.012500
  0.197368  0.197368  0.000000      0.012500
  0.157895  0.157895  0.000000      0.012500
  0.118421  0.118421  0.000000      0.012500
  0.078947  0.078947 -0.000000      0.012500
  0.039474  0.039474  0.000000      0.012500
  0.000000  0.000000  0.000000      0.012500



--------------------------------------------------------------------------------------------------------




 Dimension of arrays:
   k-points           NKPTS =     80   k-points in BZ     NKDIM =     80   number of bands    NBANDS=      8
   number of dos      NEDOS =   2001   number of ions     NIONS =      2
   non local maximal  LDIM  =      4   non local SUM 2l+1 LMDIM =      8
   total plane-waves  NPLWV =   4096
   max r-space proj   IRMAX =      1   max aug-charges    IRDMAX=  27048
   dimension x,y,z NGX =    16 NGY =   16 NGZ =   16
   dimension x,y,z NGXF=    32 NGYF=   32 NGZF=   32
   support grid    NGXF=    64 NGYF=   64 NGZF=   64
   ions per type =               2
   NGX,Y,Z   is equivalent  to a cutoff of   6.88,  6.88,  6.88 a.u.
   NGXF,Y,Z  is equivalent  to a cutoff of  13.77, 13.77, 13.77 a.u.

 SYSTEM =  unknown system                          
 POSCAR =  cubic diamond Si                        

 Startparameter for this run:
   NWRITE =      2    write-flag & timer
   PREC   = normal    normal or accurate (medium, high low for compatibility)
   ISTART =      1    job   : 0-new  1-cont  2-samecut
   ICHARG =     11    charge: 1-file 2-atom 10-const
   ISPIN  =      1    spin polarized calculation?
   LNONCOLLINEAR =      F non collinear calculations
   LSORBIT =      F    spin-orbit coupling
   INIWAV =      1    electr: 0-lowe 1-rand  2-diag
   LASPH  =      F    aspherical Exc in radial PAW
 Electronic Relaxation 1
   ENCUT  =  245.3 eV  18.03 Ry    4.25 a.u.   4.94  4.94  4.94*2*pi/ulx,y,z
   ENINI  =  245.3     initial cutoff
   ENAUG  =  322.1 eV  augmentation charge cutoff
   NELM   =     60;   NELMIN=  2; NELMDL=  0     # of ELM steps 
   EDIFF  = 0.1E-07   stopping-criterion for ELM
   LREAL  =      F    real-space projection
   NLSPLINE    = F    spline interpolate recip. space projectors
   LCOMPAT=      F    compatible to vasp.4.4
   GGA_COMPAT  = T    GGA compatible to vasp.4.4-vasp.4.6
   LMAXPAW     = -100 max onsite density
   LMAXMIX     =    2 max onsite mixed and CHGCAR
   VOSKOWN=      0    Vosko Wilk Nusair interpolation
   ROPT   =    0.00000
 Ionic relaxation
   EDIFFG = 0.1E-06   stopping-criterion for IOM
   NSW    =      0    number of steps for IOM
   NBLOCK =      1;   KBLOCK =      1    inner block; outer block 
   IBRION =     -1    ionic relax: 0-MD 1-quasi-New 2-CG
   NFREE  =      0    steps in history (QN), initial steepest desc. (CG)
   ISIF   =      2    stress and relaxation
   IWAVPR =     10    prediction:  0-non 1-charg 2-wave 3-comb
   ISYM   =      2    0-nonsym 1-usesym 2-fastsym
   LCORR  =      T    Harris-Foulkes like correction to forces

   POTIM  = 0.5000    time-step for ionic-motion
   TEIN   =    0.0    initial temperature
   TEBEG  =    0.0;   TEEND  =   0.0 temperature during run
   SMASS  =  -3.00    Nose mass-parameter (am)
   estimated Nose-frequenzy (Omega)   =  0.10E-29 period in steps = 0.13E+47 mass=  -0.341E-27a.u.
   SCALEE = 1.0000    scale energy and forces
   NPACO  =    256;   APACO  = 10.0  distance and # of slots for P.C.
   PSTRESS=    0.0 pullay stress

  Mass of Ions in am
   POMASS =  28.09
  Ionic Valenz
   ZVAL   =   4.00
  Atomic Wigner-Seitz radii
   RWIGS  =  -1.00
  virtual crystal weights 
   VCA    =   1.00
   NELECT =       8.0000    total number of electrons
   NUPDOWN=      -1.0000    fix difference up-down

 DOS related values:
   EMIN   =  10.00;   EMAX   =-10.00  energy-range for DOS
   EFERMI =   0.00
   ISMEAR =     0;   SIGMA  =   0.05  broadening in eV -4-tet -1-fermi 0-gaus

 Electronic relaxation 2 (details)
   IALGO  =     38    algorithm
   LDIAG  =      T    sub-space diagonalisation (order eigenvalues)
   LSUBROT=      F    optimize rotation matrix (better conditioning)
   TURBO    =      0    0=normal 1=particle mesh
   IRESTART =      0    0=no restart 2=restart with 2 vectors
   NREBOOT  =      0    no. of reboots
   NMIN     =      0    reboot dimension
   EREF     =   0.00    reference energy to select bands
   IMIX   =      4    mixing-type and parameters
     AMIX     =   0.40;   BMIX     =  1.00
     AMIX_MAG =   1.60;   BMIX_MAG =  1.00
     AMIN     =   0.10
     WC   =   100.;   INIMIX=   1;  MIXPRE=   1;  MAXMIX= -45

 Intra band minimization:
   WEIMIN = 0.0000     energy-eigenvalue tresh-hold
   EBREAK =  0.31E-09  absolut break condition
   DEPER  =   0.30     relativ break condition  

   TIME   =   0.40     timestep for ELM

  volume/ion in A,a.u.               =      20.40       137.67
  Fermi-wavevector in a.u.,A,eV,Ry     =   0.951064  1.797250 12.306772  0.904522
  Thomas-Fermi vector in A             =   2.079499

 Write flags
   LWAVE        =      T    write WAVECAR
   LDOWNSAMPLE  =      F    k-point downsampling of WAVECAR
   LCHARG       =      T    write CHGCAR
   LVTOT        =      F    write LOCPOT, total local potential
   LVHAR        =      F    write LOCPOT, Hartree potential only
   LELF         =      F    write electronic localiz. function (ELF)
   LORBIT       =     11    0 simple, 1 ext, 2 COOP (PROOUT), +10 PAW based schemes


 Dipole corrections
   LMONO  =      F    monopole corrections only (constant potential shift)
   LDIPOL =      F    correct potential (dipole corrections)
   IDIPOL =      0    1-x, 2-y, 3-z, 4-all directions 
   EPSILON=  1.0000000 bulk dielectric constant

 Exchange correlation treatment:
   GGA     =    --    GGA type
   LEXCH   =     8    internal setting for exchange type
   LIBXC   =     F    Libxc                    
   VOSKOWN =     0    Vosko Wilk Nusair interpolation
   LHFCALC =     F    Hartree Fock is set to
   LHFONE  =     F    Hartree Fock one center treatment
   AEXX    =    0.0000 exact exchange contribution

 Linear response parameters
   LEPSILON=     F    determine dielectric tensor
   LRPA    =     F    only Hartree local field effects (RPA)
   LNABLA  =     F    use nabla operator in PAW spheres
   LVEL    =     F    velocity operator in full k-point grid
   CSHIFT  =0.1000    complex shift for real part using Kramers Kronig
   OMEGAMAX=  -1.0    maximum frequency
   DEG_THRESHOLD= 0.2000000E-02 threshold for treating states as degnerate
   RTIME   =   -0.100 relaxation time in fs
  (WPLASMAI=    0.000 imaginary part of plasma frequency in eV, 0.658/RTIME)
   DFIELD  = 0.0000000 0.0000000 0.0000000 field for delta impulse in time

  Optional k-point grid parameters
   LKPOINTS_OPT  =     F    use optional k-point grid
   KPOINTS_OPT_MODE=     1    mode for optional k-point grid

 Orbital magnetization related:
   ORBITALMAG=     F  switch on orbital magnetization
   LCHIMAG   =     F  perturbation theory with respect to B field
   DQ        =  0.001000  dq finite difference perturbation B field
   LLRAUG    =     F  two centre corrections for induced B field



--------------------------------------------------------------------------------------------------------


 Static calculation
 charge density and potential remain constant during run
 non-spin polarized calculation
 Variant of blocked Davidson
 Davidson routine will perform the subspace rotation
 perform sub-space diagonalisation
    after iterative eigenvector-optimisation
 no mixing
 using additional bands            4
 reciprocal scheme for non local part
 use partial core corrections
 calculate Harris-corrections to forces   (improved forces if not selfconsistent)
 use gradient corrections 
 WARNING: stress and forces are not correct
  (second derivative of E(xc) not defined)
 use of overlap-Matrix (Vanderbilt PP)
 Gauss-broadening in eV      SIGMA  =   0.05


--------------------------------------------------------------------------------------------------------


  energy-cutoff  :      245.34
  volume of cell :       40.80
      direct lattice vectors                 reciprocal lattice vectors
     0.000000000  2.732447850  2.732447850    -0.182986109  0.182986109  0.182986109
     2.732447850  0.000000000  2.732447850     0.182986109 -0.182986109  0.182986109
     2.732447850  2.732447850  0.000000000     0.182986109  0.182986109 -0.182986109

  length of vectors
     3.864264808  3.864264808  3.864264808     0.316941238  0.316941238  0.316941238



 old parameters found on file WAVECAR:
  energy-cutoff  :      245.34
  volume of cell :       40.80
      direct lattice vectors                 reciprocal lattice vectors
     0.000000000  2.732447850  2.732447850    -0.182986109  0.182986109  0.182986109
     2.732447850  0.000000000  2.732447850     0.182986109 -0.182986109  0.182986109
     2.732447850  2.732447850  0.000000000     0.182986109  0.182986109 -0.182986109

  length of vectors


 k-points in units of 2pi/SCALE and weight: K-Path Generated by VASPKIT.            
   0.50000000  0.50000000  0.50000000       0.013
   0.47368421  0.47368421  0.47368421       0.013
   0.44736842  0.44736842  0.44736842       0.013
   0.42105263  0.42105263  0.42105263       0.013
   0.39473684  0.39473684  0.39473684       0.013
   0.36842105  0.36842105  0.36842105       0.013
   0.34210526  0.34210526  0.34210526       0.013
   0.31578947  0.31578947  0.31578947       0.013
   0.28947368  0.28947368  0.28947368       0.013
   0.26315789  0.26315789  0.26315789       0.013
   0.23684211  0.23684211  0.23684211       0.013
   0.21052632  0.21052632  0.21052632       0.013
   0.18421053  0.18421053  0.18421053       0.013
   0.15789474  0.15789474  0.15789474       0.013
   0.13157895  0.13157895  0.13157895       0.013
   0.10526316  0.10526316  0.10526316       0.013
   0.07894737  0.07894737  0.07894737       0.013
   0.05263158  0.05263158  0.05263158       0.013
   0.02631579  0.02631579  0.02631579       0.013
   0.00000000  0.00000000  0.00000000       0.013
   0.00000000  0.00000000  0.00000000       0.013
  -0.00000000  0.05263158  0.00000000       0.013
  -0.00000000  0.10526316  0.00000000       0.013
  -0.00000000  0.15789474  0.00000000       0.013
  -0.00000000  0.21052632  0.00000000       0.013
  -0.00000000  0.26315789  0.00000000       0.013
  -0.00000000  0.31578947  0.00000000       0.013
   0.00000000  0.36842105 -0.00000000       0.013
  -0.00000000  0.42105263  0.00000000       0.013
  -0.00000000  0.47368421  0.00000000       0.013
  -0.00000000  0.52631579  0.00000000       0.013
   0.00000000  0.57894737 -0.00000000       0.013
  -0.00000000  0.63157895  0.00000000       0.013
   0.00000000  0.68421053 -0.00000000       0.013
   0.00000000  0.73684211 -0.00000000       0.013
  -0.00000000  0.78947368  0.00000000       0.013
  -0.00000000  0.84210526  0.00000000       0.013
   0.00000000  0.89473684 -0.00000000       0.013
  -0.00000000  0.94736842  0.00000000       0.013
   0.00000000  1.00000000  0.00000000       0.013
   0.00000000  1.00000000  0.00000000       0.013
   0.01315789  1.00000000  0.01315789       0.013
   0.02631579  1.00000000  0.02631579       0.013
   0.03947368  1.00000000  0.03947368       0.013
   0.05263158  1.00000000  0.05263158       0.013
   0.06578947  1.00000000  0.06578947       0.013
   0.07894737  1.00000000  0.07894737       0.013
   0.09210526  1.00000000  0.09210526       0.013
   0.10526316  1.00000000  0.10526316       0.013
   0.11842105  1.00000000  0.11842105       0.013
   0.13157895  1.00000000  0.13157895       0.013
   0.14473684  1.00000000  0.14473684       0.013
   0.15789474  1.00000000  0.15789474       0.013
   0.17105263  1.00000000  0.17105263       0.013
   0.18421053  1.00000000  0.18421053       0.013
   0.19736842  1.00000000  0.19736842       0.013
   0.21052632  1.00000000  0.21052632       0.013
   0.22368421  1.00000000  0.22368421       0.013
   0.23684211  1.00000000  0.23684211       0.013
   0.25000000  1.00000000  0.25000000       0.013
   0.75000000  0.75000000  0.00000000       0.013
   0.71052632  0.71052632 -0.00000000       0.013
   0.67105263  0.67105263  0.00000000       0.013
   0.63157895  0.63157895  0.00000000       0.013
   0.59210526  0.59210526 -0.00000000       0.013
   0.55263158  0.55263158  0.00000000       0.013
   0.51315789  0.51315789 -0.00000000       0.013
   0.47368421  0.47368421 -0.00000000       0.013
   0.43421053  0.43421053  0.00000000       0.013
   0.39473684  0.39473684  0.00000000       0.013
   0.35526316  0.35526316 -0.00000000       0.013
   0.31578947  0.31578947 -0.00000000       0.013
   0.27631579  0.27631579  0.00000000       0.013
   0.23684211  0.23684211 -0.00000000       0.013
   0.19736842  0.19736842  0.00000000       0.013
   0.15789474  0.15789474  0.00000000       0.013
   0.11842105  0.11842105  0.00000000       0.013
   0.07894737  0.07894737 -0.00000000       0.013
   0.03947368  0.03947368  0.00000000       0.013
   0.00000000  0.00000000  0.00000000       0.013

 k-points in reciprocal lattice and weights: K-Path Generated by VASPKIT.            
   0.50000000  0.50000000  0.50000000       0.013
   0.47368421  0.47368421  0.47368421       0.013
   0.44736842  0.44736842  0.44736842       0.013
   0.42105263  0.42105263  0.42105263       0.013
   0.39473684  0.39473684  0.39473684       0.013
   0.36842105  0.36842105  0.36842105       0.013
   0.34210526  0.34210526  0.34210526       0.013
   0.31578947  0.31578947  0.31578947       0.013
   0.28947368  0.28947368  0.28947368       0.013
   0.26315789  0.26315789  0.26315789       0.013
   0.23684211  0.23684211  0.23684211       0.013
   0.21052632  0.21052632  0.21052632       0.013
   0.18421053  0.18421053  0.18421053       0.013
   0.15789474  0.15789474  0.15789474       0.013
   0.13157895  0.13157895  0.13157895       0.013
   0.10526316  0.10526316  0.10526316       0.013
   0.07894737  0.07894737  0.07894737       0.013
   0.05263158  0.05263158  0.05263158       0.013
   0.02631579  0.02631579  0.02631579       0.013
   0.00000000  0.00000000  0.00000000       0.013
   0.00000000  0.00000000  0.00000000       0.013
   0.02631579  0.00000000  0.02631579       0.013
   0.05263158  0.00000000  0.05263158       0.013
   0.07894737  0.00000000  0.07894737       0.013
   0.10526316  0.00000000  0.10526316       0.013
   0.13157895  0.00000000  0.13157895       0.013
   0.15789474  0.00000000  0.15789474       0.013
   0.18421053  0.00000000  0.18421053       0.013
   0.21052632  0.00000000  0.21052632       0.013
   0.23684211  0.00000000  0.23684211       0.013
   0.26315789  0.00000000  0.26315789       0.013
   0.28947368  0.00000000  0.28947368       0.013
   0.31578947  0.00000000  0.31578947       0.013
   0.34210526  0.00000000  0.34210526       0.013
   0.36842105  0.00000000  0.36842105       0.013
   0.39473684  0.00000000  0.39473684       0.013
   0.42105263  0.00000000  0.42105263       0.013
   0.44736842  0.00000000  0.44736842       0.013
   0.47368421  0.00000000  0.47368421       0.013
   0.50000000  0.00000000  0.50000000       0.013
   0.50000000  0.00000000  0.50000000       0.013
   0.50657895  0.01315789  0.50657895       0.013
   0.51315789  0.02631579  0.51315789       0.013
   0.51973684  0.03947368  0.51973684       0.013
   0.52631579  0.05263158  0.52631579       0.013
   0.53289474  0.06578947  0.53289474       0.013
   0.53947368  0.07894737  0.53947368       0.013
   0.54605263  0.09210526  0.54605263       0.013
   0.55263158  0.10526316  0.55263158       0.013
   0.55921053  0.11842105  0.55921053       0.013
   0.56578947  0.13157895  0.56578947       0.013
   0.57236842  0.14473684  0.57236842       0.013
   0.57894737  0.15789474  0.57894737       0.013
   0.58552632  0.17105263  0.58552632       0.013
   0.59210526  0.18421053  0.59210526       0.013
   0.59868421  0.19736842  0.59868421       0.013
   0.60526316  0.21052632  0.60526316       0.013
   0.61184211  0.22368421  0.61184211       0.013
   0.61842105  0.23684211  0.61842105       0.013
   0.62500000  0.25000000  0.62500000       0.013
   0.37500000  0.37500000  0.75000000       0.013
   0.35526316  0.35526316  0.71052632       0.013
   0.33552632  0.33552632  0.67105263       0.013
   0.31578947  0.31578947  0.63157895       0.013
   0.29605263  0.29605263  0.59210526       0.013
   0.27631579  0.27631579  0.55263158       0.013
   0.25657895  0.25657895  0.51315789       0.013
   0.23684211  0.23684211  0.47368421       0.013
   0.21710526  0.21710526  0.43421053       0.013
   0.19736842  0.19736842  0.39473684       0.013
   0.17763158  0.17763158  0.35526316       0.013
   0.15789474  0.15789474  0.31578947       0.013
   0.13815789  0.13815789  0.27631579       0.013
   0.11842105  0.11842105  0.23684211       0.013
   0.09868421  0.09868421  0.19736842       0.013
   0.07894737  0.07894737  0.15789474       0.013
   0.05921053  0.05921053  0.11842105       0.013
   0.03947368  0.03947368  0.07894737       0.013
   0.01973684  0.01973684  0.03947368       0.013
   0.00000000  0.00000000  0.00000000       0.013

 position of ions in fractional coordinates (direct lattice) 
   0.87500000  0.87500000  0.87500000
   0.12500000  0.12500000  0.12500000

 position of ions in cartesian coordinates  (Angst):
   4.78178374  4.78178374  4.78178374
   0.68311196  0.68311196  0.68311196



--------------------------------------------------------------------------------------------------------


 k-point   1 :   0.5000 0.5000 0.5000  plane waves:     344
 k-point   2 :   0.4737 0.4737 0.4737  plane waves:     356
 k-point   3 :   0.4474 0.4474 0.4474  plane waves:     356
 k-point   4 :   0.4211 0.4211 0.4211  plane waves:     356
 k-point   5 :   0.3947 0.3947 0.3947  plane waves:     353
 k-point   6 :   0.3684 0.3684 0.3684  plane waves:     353
 k-point   7 :   0.3421 0.3421 0.3421  plane waves:     359
 k-point   8 :   0.3158 0.3158 0.3158  plane waves:     353
 k-point   9 :   0.2895 0.2895 0.2895  plane waves:     353
 k-point  10 :   0.2632 0.2632 0.2632  plane waves:     353
 k-point  11 :   0.2368 0.2368 0.2368  plane waves:     353
 k-point  12 :   0.2105 0.2105 0.2105  plane waves:     356
 k-point  13 :   0.1842 0.1842 0.1842  plane waves:     356
 k-point  14 :   0.1579 0.1579 0.1579  plane waves:     344
 k-point  15 :   0.1316 0.1316 0.1316  plane waves:     344
 k-point  16 :   0.1053 0.1053 0.1053  plane waves:     335
 k-point  17 :   0.0789 0.0789 0.0789  plane waves:     338
 k-point  18 :   0.0526 0.0526 0.0526  plane waves:     338
 k-point  19 :   0.0263 0.0263 0.0263  plane waves:     339
 k-point  20 :   0.0000 0.0000 0.0000  plane waves:     339
 k-point  21 :   0.0000 0.0000 0.0000  plane waves:     339
 k-point  22 :   0.0263 0.0000 0.0263  plane waves:     339
 k-point  23 :   0.0526 0.0000 0.0526  plane waves:     335
 k-point  24 :   0.0789 0.0000 0.0789  plane waves:     335
 k-point  25 :   0.1053 0.0000 0.1053  plane waves:     339
 k-point  26 :   0.1316 0.0000 0.1316  plane waves:     347
 k-point  27 :   0.1579 0.0000 0.1579  plane waves:     351
 k-point  28 :   0.1842 0.0000 0.1842  plane waves:     351
 k-point  29 :   0.2105 0.0000 0.2105  plane waves:     347
 k-point  30 :   0.2368 0.0000 0.2368  plane waves:     351
 k-point  31 :   0.2632 0.0000 0.2632  plane waves:     351
 k-point  32 :   0.2895 0.0000 0.2895  plane waves:     347
 k-point  33 :   0.3158 0.0000 0.3158  plane waves:     347
 k-point  34 :   0.3421 0.0000 0.3421  plane waves:     355
 k-point  35 :   0.3684 0.0000 0.3684  plane waves:     351
 k-point  36 :   0.3947 0.0000 0.3947  plane waves:     359
 k-point  37 :   0.4211 0.0000 0.4211  plane waves:     351
 k-point  38 :   0.4474 0.0000 0.4474  plane waves:     351
 k-point  39 :   0.4737 0.0000 0.4737  plane waves:     351
 k-point  40 :   0.5000 0.0000 0.5000  plane waves:     342
 k-point  41 :   0.5000 0.0000 0.5000  plane waves:     342
 k-point  42 :   0.5066 0.0132 0.5066  plane waves:     342
 k-point  43 :   0.5132 0.0263 0.5132  plane waves:     346
 k-point  44 :   0.5197 0.0395 0.5197  plane waves:     350
 k-point  45 :   0.5263 0.0526 0.5263  plane waves:     350
 k-point  46 :   0.5329 0.0658 0.5329  plane waves:     351
 k-point  47 :   0.5395 0.0789 0.5395  plane waves:     351
 k-point  48 :   0.5461 0.0921 0.5461  plane waves:     357
 k-point  49 :   0.5526 0.1053 0.5526  plane waves:     357
 k-point  50 :   0.5592 0.1184 0.5592  plane waves:     359
 k-point  51 :   0.5658 0.1316 0.5658  plane waves:     359
 k-point  52 :   0.5724 0.1447 0.5724  plane waves:     359
 k-point  53 :   0.5789 0.1579 0.5789  plane waves:     359
 k-point  54 :   0.5855 0.1711 0.5855  plane waves:     359
 k-point  55 :   0.5921 0.1842 0.5921  plane waves:     359
 k-point  56 :   0.5987 0.1974 0.5987  plane waves:     359
 k-point  57 :   0.6053 0.2105 0.6053  plane waves:     359
 k-point  58 :   0.6118 0.2237 0.6118  plane waves:     363
 k-point  59 :   0.6184 0.2368 0.6184  plane waves:     363
 k-point  60 :   0.6250 0.2500 0.6250  plane waves:     363
 k-point  61 :   0.3750 0.3750 0.7500  plane waves:     363
 k-point  62 :   0.3553 0.3553 0.7105  plane waves:     365
 k-point  63 :   0.3355 0.3355 0.6711  plane waves:     353
 k-point  64 :   0.3158 0.3158 0.6316  plane waves:     357
 k-point  65 :   0.2961 0.2961 0.5921  plane waves:     361
 k-point  66 :   0.2763 0.2763 0.5526  plane waves:     361
 k-point  67 :   0.2566 0.2566 0.5132  plane waves:     361
 k-point  68 :   0.2368 0.2368 0.4737  plane waves:     359
 k-point  69 :   0.2171 0.2171 0.4342  plane waves:     357
 k-point  70 :   0.1974 0.1974 0.3947  plane waves:     357
 k-point  71 :   0.1776 0.1776 0.3553  plane waves:     353
 k-point  72 :   0.1579 0.1579 0.3158  plane waves:     357
 k-point  73 :   0.1382 0.1382 0.2763  plane waves:     353
 k-point  74 :   0.1184 0.1184 0.2368  plane waves:     353
 k-point  75 :   0.0987 0.0987 0.1974  plane waves:     353
 k-point  76 :   0.0789 0.0789 0.1579  plane waves:     343
 k-point  77 :   0.0592 0.0592 0.1184  plane waves:     339
 k-point  78 :   0.0395 0.0395 0.0789  plane waves:     337
 k-point  79 :   0.0197 0.0197 0.0395  plane waves:     339
 k-point  80 :   0.0000 0.0000 0.0000  plane waves:     339

 maximum and minimum number of plane-waves per node :       365      335

 maximum number of plane-waves:       365
 maximum index in each direction: 
   IXMAX=    4   IYMAX=    4   IZMAX=    4
   IXMIN=   -5   IYMIN=   -5   IZMIN=   -5


 serial   3D FFT for wavefunctions
 parallel 3D FFT for charge:
    minimum data exchange during FFTs selected (reduces bandwidth)


 total amount of memory used by VASP MPI-rank0    37314. kBytes
=======================================================================

   base      :      30000. kBytes
   nonl-proj :       1885. kBytes
   fftplans  :       2481. kBytes
   grid      :        987. kBytes
   one-center:          6. kBytes
   wavefun   :       1955. kBytes

     INWAV:  cpu time      0.0148: real time      0.0148
 initial charge density was supplied:
 number of electron       8.0000000 magnetization 
 keeping initial charge density in first step


--------------------------------------------------------------------------------------------------------


 Maximum index for augmentation-charges        13063 (set IRDMAX)


--------------------------------------------------------------------------------------------------------


 First call to EWALD:  gamma=   0.515
 Maximum number of real-space cells 3x 3x 3
 Maximum number of reciprocal cells 3x 3x 3

    FEWALD:  cpu time      0.0006: real time      0.0006


--------------------------------------- Iteration      1(   1)  ---------------------------------------


    POTLOK:  cpu time      0.0055: real time      0.0058
    SETDIJ:  cpu time      0.0094: real time      0.0094
     EDDAV:  cpu time      0.2646: real time      0.2671
       DOS:  cpu time      0.0042: real time      0.0048
    --------------------------------------------
      LOOP:  cpu time      0.2836: real time      0.2871

 eigenvalue-minimisations  :  1552
 total energy-change (2. order) :-0.6918234E+01  (-0.3941874E-12)
 number of electron       8.0000000 magnetization 
 augmentation part        8.0000000 magnetization 

 Free energy of the ion-electron system (eV)
  ---------------------------------------------------
  alpha Z        PSCENC =         3.30011333
  Ewald energy   TEWEN  =      -227.10404891
  -Hartree energ DENC   =       -16.10845090
  -exchange      EXHF   =         0.00000000
  -V(xc)+E(xc)   XCENC  =       -17.92482164
  PAW double counting   =      1019.78438030     -984.82976553
  entropy T*S    EENTRO =        -0.00000000
  eigenvalues    EBANDS =         9.84178740
  atomic energy  EATOM  =       206.12257231
  Solvation  Ediel_sol  =         0.00000000
  ---------------------------------------------------
  free energy    TOTEN  =        -6.91823365 eV

  energy without entropy =       -6.91823365  energy(sigma->0) =       -6.91823365


--------------------------------------------------------------------------------------------------------




--------------------------------------- Iteration      1(   2)  ---------------------------------------


     EDDAV:  cpu time      0.2120: real time      0.2120
       DOS:  cpu time      0.0039: real time      0.0039
    --------------------------------------------
      LOOP:  cpu time      0.2159: real time      0.2159

 eigenvalue-minimisations  :  1384
 total energy-change (2. order) : 0.0000000E+00  ( 0.6910271E-14)
 number of electron       8.0000000 magnetization 
 augmentation part        8.0000000 magnetization 

 Free energy of the ion-electron system (eV)
  ---------------------------------------------------
  alpha Z        PSCENC =         3.30011333
  Ewald energy   TEWEN  =      -227.10404891
  -Hartree energ DENC   =       -16.10845090
  -exchange      EXHF   =         0.00000000
  -V(xc)+E(xc)   XCENC  =       -17.92482164
  PAW double counting   =      1019.78438030     -984.82976553
  entropy T*S    EENTRO =        -0.00000000
  eigenvalues    EBANDS =         9.84178740
  atomic energy  EATOM  =       206.12257231
  Solvation  Ediel_sol  =         0.00000000
  ---------------------------------------------------
  free energy    TOTEN  =        -6.91823365 eV

  energy without entropy =       -6.91823365  energy(sigma->0) =       -6.91823365


--------------------------------------------------------------------------------------------------------




 average (electrostatic) potential at core
  the test charge radii are     0.9892
  (the norm of the test charge is              1.0000)
       1 -83.2610       2 -83.2610



 E-fermi :   6.0024     XC(G=0):  -9.2682     alpha+bet :-11.7564

 Fermi energy:         6.0024481397

 k-point     1 :       0.5000    0.5000    0.5000
  band No.  band energies     occupation 
      1      -3.7929      2.00000
      2      -1.1439      2.00000
      3       4.5809      2.00000
      4       4.5809      2.00000
      5       7.2284      0.00000
      6       9.0788      0.00000
      7       9.0788      0.00000
      8      13.4179      0.00000

 k-point     2 :       0.4737    0.4737    0.4737
  band No.  band energies     occupation 
      1      -3.8318      2.00000
      2      -1.0887      2.00000
      3       4.5852      2.00000
      4       4.5852      2.00000
      5       7.2338      0.00000
      6       9.0836      0.00000
      7       9.0836      0.00000
      8      13.4261      0.00000

 k-point     3 :       0.4474    0.4474    0.4474
  band No.  band energies     occupation 
      1      -3.9381      2.00000
      2      -0.9316      2.00000
      3       4.6001      2.00000
      4       4.6001      2.00000
      5       7.2508      0.00000
      6       9.0999      0.00000
      7       9.0999      0.00000
      8      13.4512      0.00000

 k-point     4 :       0.4211    0.4211    0.4211
  band No.  band energies     occupation 
      1      -4.0922      2.00000
      2      -0.6929      2.00000
      3       4.6248      2.00000
      4       4.6248      2.00000
      5       7.2792      0.00000
      6       9.1256      0.00000
      7       9.1256      0.00000
      8      13.4896      0.00000

 k-point     5 :       0.3947    0.3947    0.3947
  band No.  band energies     occupation 
      1      -4.2742      2.00000
      2      -0.3928      2.00000
      3       4.6594      2.00000
      4       4.6594      2.00000
      5       7.3200      0.00000
      6       9.1582      0.00000
      7       9.1582      0.00000
      8      13.5345      0.00000

 k-point     6 :       0.3684    0.3684    0.3684
  band No.  band energies     occupation 
      1      -4.4690      2.00000
      2      -0.0468      2.00000
      3       4.7037      2.00000
      4       4.7037      2.00000
      5       7.3704      0.00000
      6       9.1941      0.00000
      7       9.1941      0.00000
      8      13.5699      0.00000

 k-point     7 :       0.3421    0.3421    0.3421
  band No.  band energies     occupation 
      1      -4.6663      2.00000
      2       0.3344      2.00000
      3       4.7576      2.00000
      4       4.7576      2.00000
      5       7.4313      0.00000
      6       9.2267      0.00000
      7       9.2267      0.00000
      8      13.5579      0.00000

 k-point     8 :       0.3158    0.3158    0.3158
  band No.  band energies     occupation 
      1      -4.8594      2.00000
      2       0.7450      2.00000
      3       4.8211      2.00000
      4       4.8211      2.00000
      5       7.5025      0.00000
      6       9.2525      0.00000
      7       9.2525      0.00000
      8      13.4306      0.00000

 k-point     9 :       0.2895    0.2895    0.2895
  band No.  band energies     occupation 
      1      -5.0443      2.00000
      2       1.1774      2.00000
      3       4.8935      2.00000
      4       4.8935      2.00000
      5       7.5830      0.00000
      6       9.2621      0.00000
      7       9.2621      0.00000
      8      13.1460      0.00000

 k-point    10 :       0.2632    0.2632    0.2632
  band No.  band energies     occupation 
      1      -5.2179      2.00000
      2       1.6288      2.00000
      3       4.9744      2.00000
      4       4.9744      2.00000
      5       7.6719      0.00000
      6       9.2477      0.00000
      7       9.2477      0.00000
      8      12.7580      0.00000

 k-point    11 :       0.2368    0.2368    0.2368
  band No.  band energies     occupation 
      1      -5.3784      2.00000
      2       2.0960      2.00000
      3       5.0630      2.00000
      4       5.0630      2.00000
      5       7.7665      0.00000
      6       9.2038      0.00000
      7       9.2038      0.00000
      8      12.3191      0.00000

 k-point    12 :       0.2105    0.2105    0.2105
  band No.  band energies     occupation 
      1      -5.5242      2.00000
      2       2.5757      2.00000
      3       5.1581      2.00000
      4       5.1581      2.00000
      5       7.8670      0.00000
      6       9.1259      0.00000
      7       9.1259      0.00000
      8      11.8581      0.00000

 k-point    13 :       0.1842    0.1842    0.1842
  band No.  band energies     occupation 
      1      -5.6545      2.00000
      2       3.0643      2.00000
      3       5.2581      2.00000
      4       5.2581      2.00000
      5       7.9710      0.00000
      6       9.0180      0.00000
      7       9.0180      0.00000
      8      11.3877      0.00000

 k-point    14 :       0.1579    0.1579    0.1579
  band No.  band energies     occupation 
      1      -5.7684      2.00000
      2       3.5581      2.00000
      3       5.3614      2.00000
      4       5.3614      2.00000
      5       8.0748      0.00000
      6       8.8888      0.00000
      7       8.8888      0.00000
      8      10.9134      0.00000

 k-point    15 :       0.1316    0.1316    0.1316
  band No.  band energies     occupation 
      1      -5.8655      2.00000
      2       4.0496      2.00000
      3       5.4634      2.00000
      4       5.4634      2.00000
      5       8.1725      0.00000
      6       8.7473      0.00000
      7       8.7473      0.00000
      8      10.4421      0.00000

 k-point    16 :       0.1053    0.1053    0.1053
  band No.  band energies     occupation 
      1      -5.9454      2.00000
      2       4.5313      2.00000
      3       5.5617      2.00000
      4       5.5617      2.00000
      5       8.2581      0.00000
      6       8.6074      0.00000
      7       8.6074      0.00000
      8       9.9855      0.00000

 k-point    17 :       0.0789    0.0789    0.0789
  band No.  band energies     occupation 
      1      -6.0079      2.00000
      2       4.9840      2.00000
      3       5.6475      2.00000
      4       5.6475      2.00000
      5       8.3198      0.00000
      6       8.4797      0.00000
      7       8.4797      0.00000
      8       9.5642      0.00000

 k-point    18 :       0.0526    0.0526    0.0526
  band No.  band energies     occupation 
      1      -6.0526      2.00000
      2       5.3806      2.00000
      3       5.7170      2.00000
      4       5.7170      2.00000
      5       8.3418      0.00000
      6       8.3778      0.00000
      7       8.3778      0.00000
      8       9.2181      0.00000

 k-point    19 :       0.0263    0.0263    0.0263
  band No.  band energies     occupation 
      1      -6.0795      2.00000
      2       5.6687      2.00000
      3       5.7624      2.00000
      4       5.7624      2.00000
      5       8.3116      0.00000
      6       8.3116      0.00000
      7       8.3151      0.00000
      8       9.0016      0.00000

 k-point    20 :       0.0000    0.0000    0.0000
  band No.  band energies     occupation 
      1      -6.0885      2.00000
      2       5.7782      2.00000
      3       5.7783      2.00000
      4       5.7783      2.00000
      5       8.2886      0.00000
      6       8.2886      0.00000
      7       8.2886      0.00000
      8       8.9344      0.00000

 k-point    21 :       0.0000    0.0000    0.0000
  band No.  band energies     occupation 
      1      -6.0885      2.00000
      2       5.7782      2.00000
      3       5.7783      2.00000
      4       5.7783      2.00000
      5       8.2886      0.00000
      6       8.2886      0.00000
      7       8.2886      0.00000
      8       8.9344      0.00000

 k-point    22 :       0.0263    0.0000    0.0263
  band No.  band energies     occupation 
      1      -6.0766      2.00000
      2       5.6931      2.00000
      3       5.7262      2.00000
      4       5.7262      2.00000
      5       8.2590      0.00000
      6       8.3555      0.00000
      7       8.3555      0.00000
      8       9.0176      0.00000

 k-point    23 :       0.0526    0.0000    0.0526
  band No.  band energies     occupation 
      1      -6.0406      2.00000
      2       5.4624      2.00000
      3       5.5857      2.00000
      4       5.5857      2.00000
      5       8.1740      0.00000
      6       8.5417      0.00000
      7       8.5417      0.00000
      8       9.2400      0.00000

 k-point    24 :       0.0789    0.0000    0.0789
  band No.  band energies     occupation 
      1      -5.9808      2.00000
      2       5.1318      2.00000
      3       5.3857      2.00000
      4       5.3857      2.00000
      5       8.0435      0.00000
      6       8.8153      0.00000
      7       8.8153      0.00000
      8       9.5393      0.00000

 k-point    25 :       0.1053    0.0000    0.1053
  band No.  band energies     occupation 
      1      -5.8974      2.00000
      2       4.7414      2.00000
      3       5.1550      2.00000
      4       5.1550      2.00000
      5       7.8805      0.00000
      6       9.1484      0.00000
      7       9.1484      0.00000
      8       9.8408      0.00000

 k-point    26 :       0.1316    0.0000    0.1316
  band No.  band energies     occupation 
      1      -5.7903      2.00000
      2       4.3166      2.00000
      3       4.9106      2.00000
      4       4.9106      2.00000
      5       7.6971      0.00000
      6       9.5210      0.00000
      7       9.5210      0.00000
      8      10.0427      0.00000

 k-point    27 :       0.1579    0.0000    0.1579
  band No.  band energies     occupation 
      1      -5.6597      2.00000
      2       3.8717      2.00000
      3       4.6674      2.00000
      4       4.6674      2.00000
      5       7.5056      0.00000
      6       9.9217      0.00000
      7       9.9217      0.00000
      8      10.0282      0.00000

 k-point    28 :       0.1842    0.0000    0.1842
  band No.  band energies     occupation 
      1      -5.5058      2.00000
      2       3.4155      2.00000
      3       4.4310      2.00000
      4       4.4310      2.00000
      5       7.3141      0.00000
      6       9.7958      0.00000
      7      10.3440      0.00000
      8      10.3440      0.00000

 k-point    29 :       0.2105    0.0000    0.2105
  band No.  band energies     occupation 
      1      -5.3290      2.00000
      2       2.9524      2.00000
      3       4.2059      2.00000
      4       4.2059      2.00000
      5       7.1294      0.00000
      6       9.4485      0.00000
      7      10.7833      0.00000
      8      10.7833      0.00000

 k-point    30 :       0.2368    0.0000    0.2368
  band No.  band energies     occupation 
      1      -5.1295      2.00000
      2       2.4853      2.00000
      3       3.9950      2.00000
      4       3.9950      2.00000
      5       6.9565      0.00000
      6       9.0610      0.00000
      7      11.2320      0.00000
      8      11.2320      0.00000

 k-point    31 :       0.2632    0.0000    0.2632
  band No.  band energies     occupation 
      1      -4.9076      2.00000
      2       2.0166      2.00000
      3       3.8006      2.00000
      4       3.8006      2.00000
      5       6.7995      0.00000
      6       8.6728      0.00000
      7      11.6915      0.00000
      8      11.6915      0.00000

 k-point    32 :       0.2895    0.0000    0.2895
  band No.  band energies     occupation 
      1      -4.6637      2.00000
      2       1.5482      2.00000
      3       3.6242      2.00000
      4       3.6242      2.00000
      5       6.6621      0.00000
      6       8.3021      0.00000
      7      12.1629      0.00000
      8      12.1629      0.00000

 k-point    33 :       0.3158    0.0000    0.3158
  band No.  band energies     occupation 
      1      -4.3985      2.00000
      2       1.0815      2.00000
      3       3.4665      2.00000
      4       3.4666      2.00000
      5       6.5456      0.00000
      6       7.9570      0.00000
      7      12.6371      0.00000
      8      12.6371      0.00000

 k-point    34 :       0.3421    0.0000    0.3421
  band No.  band energies     occupation 
      1      -4.1125      2.00000
      2       0.6181      2.00000
      3       3.3279      2.00000
      4       3.3279      2.00000
      5       6.4525      0.00000
      6       7.6421      0.00000
      7      13.1168      0.00000
      8      13.1169      0.00000

 k-point    35 :       0.3684    0.0000    0.3684
  band No.  band energies     occupation 
      1      -3.8058      2.00000
      2       0.1599      2.00000
      3       3.2105      2.00000
      4       3.2105      2.00000
      5       6.3857      0.00000
      6       7.3612      0.00000
      7      13.6024      0.00000
      8      13.6024      0.00000

 k-point    36 :       0.3947    0.0000    0.3947
  band No.  band energies     occupation 
      1      -3.4801      2.00000
      2      -0.2924      2.00000
      3       3.1137      2.00000
      4       3.1137      2.00000
      5       6.3444      0.00000
      6       7.1133      0.00000
      7      14.0896      0.00000
      8      14.0897      0.00000

 k-point    37 :       0.4211    0.0000    0.4211
  band No.  band energies     occupation 
      1      -3.1355      2.00000
      2      -0.7356      2.00000
      3       3.0383      2.00000
      4       3.0383      2.00000
      5       6.3320      0.00000
      6       6.9019      0.00000
      7      14.5853      0.00000
      8      14.5853      0.00000

 k-point    38 :       0.4474    0.0000    0.4474
  band No.  band energies     occupation 
      1      -2.7733      2.00000
      2      -1.1690      2.00000
      3       2.9842      2.00000
      4       2.9842      2.00000
      5       6.3480      0.00000
      6       6.7247      0.00000
      7      15.0630      0.00000
      8      15.0630      0.00000

 k-point    39 :       0.4737    0.0000    0.4737
  band No.  band energies     occupation 
      1      -2.3943      2.00000
      2      -1.5908      2.00000
      3       2.9517      2.00000
      4       2.9517      2.00000
      5       6.3942      0.00000
      6       6.5816      0.00000
      7      15.4937      0.00000
      8      15.4937      0.00000

 k-point    40 :       0.5000    0.0000    0.5000
  band No.  band energies     occupation 
      1      -1.9997      2.00000
      2      -1.9997      2.00000
      3       2.9412      2.00000
      4       2.9412      2.00000
      5       6.4728      0.00000
      6       6.4728      0.00000
      7      15.7186      0.00000
      8      15.7186      0.00000

 k-point    41 :       0.5000    0.0000    0.5000
  band No.  band energies     occupation 
      1      -1.9997      2.00000
      2      -1.9997      2.00000
      3       2.9412      2.00000
      4       2.9412      2.00000
      5       6.4728      0.00000
      6       6.4728      0.00000
      7      15.7186      0.00000
      8      15.7186      0.00000

 k-point    42 :       0.5066    0.0132    0.5066
  band No.  band energies     occupation 
      1      -2.0003      2.00000
      2      -1.9981      2.00000
      3       2.9309      2.00000
      4       2.9424      2.00000
      5       6.4742      0.00000
      6       6.4881      0.00000
      7      15.7023      0.00000
      8      15.7094      0.00000

 k-point    43 :       0.5132    0.0263    0.5132
  band No.  band energies     occupation 
      1      -2.0023      2.00000
      2      -1.9932      2.00000
      3       2.9001      2.00000
      4       2.9459      2.00000
      5       6.4783      0.00000
      6       6.5329      0.00000
      7      15.6534      0.00000
      8      15.6803      0.00000

 k-point    44 :       0.5197    0.0395    0.5197
  band No.  band energies     occupation 
      1      -2.0055      2.00000
      2      -1.9851      2.00000
      3       2.8512      2.00000
      4       2.9517      2.00000
      5       6.4844      0.00000
      6       6.6067      0.00000
      7      15.5743      0.00000
      8      15.6354      0.00000

 k-point    45 :       0.5263    0.0526    0.5263
  band No.  band energies     occupation 
      1      -2.0102      2.00000
      2      -1.9738      2.00000
      3       2.7865      2.00000
      4       2.9601      2.00000
      5       6.4941      0.00000
      6       6.7067      0.00000
      7      15.4749      0.00000
      8      15.5759      0.00000

 k-point    46 :       0.5329    0.0658    0.5329
  band No.  band energies     occupation 
      1      -2.0166      2.00000
      2      -1.9592      2.00000
      3       2.7085      2.00000
      4       2.9709      2.00000
      5       6.5065      0.00000
      6       6.8288      0.00000
      7      15.3572      0.00000
      8      15.5027      0.00000

 k-point    47 :       0.5395    0.0789    0.5395
  band No.  band energies     occupation 
      1      -2.0246      2.00000
      2      -1.9414      2.00000
      3       2.6208      2.00000
      4       2.9841      2.00000
      5       6.5216      0.00000
      6       6.9724      0.00000
      7      15.2254      0.00000
      8      15.4178      0.00000

 k-point    48 :       0.5461    0.0921    0.5461
  band No.  band energies     occupation 
      1      -2.0346      2.00000
      2      -1.9203      2.00000
      3       2.5258      2.00000
      4       2.9997      2.00000
      5       6.5388      0.00000
      6       7.1338      0.00000
      7      15.0826      0.00000
      8      15.3226      0.00000

 k-point    49 :       0.5526    0.1053    0.5526
  band No.  band energies     occupation 
      1      -2.0468      2.00000
      2      -1.8960      2.00000
      3       2.4264      2.00000
      4       3.0176      2.00000
      5       6.5594      0.00000
      6       7.3106      0.00000
      7      14.9324      0.00000
      8      15.2195      0.00000

 k-point    50 :       0.5592    0.1184    0.5592
  band No.  band energies     occupation 
      1      -2.0615      2.00000
      2      -1.8685      2.00000
      3       2.3246      2.00000
      4       3.0379      2.00000
      5       6.5826      0.00000
      6       7.5007      0.00000
      7      14.7747      0.00000
      8      15.1099      0.00000

 k-point    51 :       0.5658    0.1316    0.5658
  band No.  band energies     occupation 
      1      -2.0789      2.00000
      2      -1.8377      2.00000
      3       2.2227      2.00000
      4       3.0605      2.00000
      5       6.6086      0.00000
      6       7.7025      0.00000
      7      14.6147      0.00000
      8      14.9945      0.00000

 k-point    52 :       0.5724    0.1447    0.5724
  band No.  band energies     occupation 
      1      -2.0995      2.00000
      2      -1.8038      2.00000
      3       2.1223      2.00000
      4       3.0854      2.00000
      5       6.6371      0.00000
      6       7.9144      0.00000
      7      14.4520      0.00000
      8      14.8751      0.00000

 k-point    53 :       0.5789    0.1579    0.5789
  band No.  band energies     occupation 
      1      -2.1235      2.00000
      2      -1.7666      2.00000
      3       2.0248      2.00000
      4       3.1126      2.00000
      5       6.6683      0.00000
      6       8.1353      0.00000
      7      14.2876      0.00000
      8      14.7522      0.00000

 k-point    54 :       0.5855    0.1711    0.5855
  band No.  band energies     occupation 
      1      -2.1512      2.00000
      2      -1.7261      2.00000
      3       1.9315      2.00000
      4       3.1420      2.00000
      5       6.7021      0.00000
      6       8.3641      0.00000
      7      14.1223      0.00000
      8      14.6287      0.00000

 k-point    55 :       0.5921    0.1842    0.5921
  band No.  band energies     occupation 
      1      -2.1830      2.00000
      2      -1.6825      2.00000
      3       1.8437      2.00000
      4       3.1737      2.00000
      5       6.7385      0.00000
      6       8.6000      0.00000
      7      13.9567      0.00000
      8      14.5033      0.00000

 k-point    56 :       0.5987    0.1974    0.5987
  band No.  band energies     occupation 
      1      -2.2192      2.00000
      2      -1.6356      2.00000
      3       1.7621      2.00000
      4       3.2075      2.00000
      5       6.7773      0.00000
      6       8.8422      0.00000
      7      13.7912      0.00000
      8      14.3731      0.00000

 k-point    57 :       0.6053    0.2105    0.6053
  band No.  band energies     occupation 
      1      -2.2600      2.00000
      2      -1.5856      2.00000
      3       1.6876      2.00000
      4       3.2435      2.00000
      5       6.8187      0.00000
      6       9.0901      0.00000
      7      13.6263      0.00000
      8      14.2384      0.00000

 k-point    58 :       0.6118    0.2237    0.6118
  band No.  band energies     occupation 
      1      -2.3060      2.00000
      2      -1.5324      2.00000
      3       1.6205      2.00000
      4       3.2816      2.00000
      5       6.8624      0.00000
      6       9.3416      0.00000
      7      13.4620      0.00000
      8      14.0646      0.00000

 k-point    59 :       0.6184    0.2368    0.6184
  band No.  band energies     occupation 
      1      -2.3566      2.00000
      2      -1.4759      2.00000
      3       1.5621      2.00000
      4       3.3217      2.00000
      5       6.9085      0.00000
      6       9.5991      0.00000
      7      13.2992      0.00000
      8      13.8874      0.00000

 k-point    60 :       0.6250    0.2500    0.6250
  band No.  band energies     occupation 
      1      -2.4122      2.00000
      2      -1.4162      2.00000
      3       1.5122      2.00000
      4       3.3639      2.00000
      5       6.9570      0.00000
      6       9.8606      0.00000
      7      13.1378      0.00000
      8      13.7169      0.00000

 k-point    61 :       0.3750    0.3750    0.7500
  band No.  band energies     occupation 
      1      -2.4122      2.00000
      2      -1.4162      2.00000
      3       1.5122      2.00000
      4       3.3639      2.00000
      5       6.9570      0.00000
      6       9.8606      0.00000
      7      13.1378      0.00000
      8      13.7168      0.00000

 k-point    62 :       0.3553    0.3553    0.7105
  band No.  band energies     occupation 
      1      -2.6083      2.00000
      2      -1.2183      2.00000
      3       1.4161      2.00000
      4       3.5021      2.00000
      5       7.1156      0.00000
      6      10.6626      0.00000
      7      12.6639      0.00000
      8      13.2263      0.00000

 k-point    63 :       0.3355    0.3355    0.6711
  band No.  band energies     occupation 
      1      -2.8436      2.00000
      2      -0.9912      2.00000
      3       1.3996      2.00000
      4       3.6565      2.00000
      5       7.2929      0.00000
      6      11.4629      0.00000
      7      12.2095      0.00000
      8      12.7974      0.00000

 k-point    64 :       0.3158    0.3158    0.6316
  band No.  band energies     occupation 
      1      -3.1092      2.00000
      2      -0.7364      2.00000
      3       1.4556      2.00000
      4       3.8248      2.00000
      5       7.4852      0.00000
      6      11.7716      0.00000
      7      11.9758      0.00000
      8      12.6960      0.00000

 k-point    65 :       0.2961    0.2961    0.5921
  band No.  band energies     occupation 
      1      -3.3933      2.00000
      2      -0.4536      2.00000
      3       1.5754      2.00000
      4       4.0044      2.00000
      5       7.6888      0.00000
      6      11.3583      0.00000
      7      11.7311      0.00000
      8      12.4270      0.00000

 k-point    66 :       0.2763    0.2763    0.5526
  band No.  band energies     occupation 
      1      -3.6857      2.00000
      2      -0.1432      2.00000
      3       1.7494      2.00000
      4       4.1929      2.00000
      5       7.8984      0.00000
      6      10.9692      0.00000
      7      11.3578      0.00000
      8      12.1328      0.00000

 k-point    67 :       0.2566    0.2566    0.5132
  band No.  band energies     occupation 
      1      -3.9776      2.00000
      2       0.1945      2.00000
      3       1.9695      2.00000
      4       4.3866      2.00000
      5       8.1047      0.00000
      6      10.6040      0.00000
      7      10.9872      0.00000
      8      11.8754      0.00000

 k-point    68 :       0.2368    0.2368    0.4737
  band No.  band energies     occupation 
      1      -4.2626      2.00000
      2       0.5594      2.00000
      3       2.2284      2.00000
      4       4.5813      2.00000
      5       8.3014      0.00000
      6      10.2645      0.00000
      7      10.6372      0.00000
      8      11.6635      0.00000

 k-point    69 :       0.2171    0.2171    0.4342
  band No.  band energies     occupation 
      1      -4.5352      2.00000
      2       0.9500      2.00000
      3       2.5201      2.00000
      4       4.7721      2.00000
      5       8.4744      0.00000
      6       9.9522      0.00000
      7      10.3090      0.00000
      8      11.5045      0.00000

 k-point    70 :       0.1974    0.1974    0.3947
  band No.  band energies     occupation 
      1      -4.7916      2.00000
      2       1.3659      2.00000
      3       2.8388      2.00000
      4       4.9544      2.00000
      5       8.6105      0.00000
      6       9.6650      0.00000
      7      10.0060      0.00000
      8      11.4020      0.00000

 k-point    71 :       0.1776    0.1776    0.3553
  band No.  band energies     occupation 
      1      -5.0292      2.00000
      2       1.8064      2.00000
      3       3.1806      2.00000
      4       5.1235      2.00000
      5       8.7002      0.00000
      6       9.4044      0.00000
      7       9.7274      0.00000
      8      11.3530      0.00000

 k-point    72 :       0.1579    0.1579    0.3158
  band No.  band energies     occupation 
      1      -5.2458      2.00000
      2       2.2695      2.00000
      3       3.5384      2.00000
      4       5.2752      2.00000
      5       8.7406      0.00000
      6       9.1706      0.00000
      7       9.4679      0.00000
      8      11.3333      0.00000

 k-point    73 :       0.1382    0.1382    0.2763
  band No.  band energies     occupation 
      1      -5.4396      2.00000
      2       2.7539      2.00000
      3       3.9070      2.00000
      4       5.4080      2.00000
      5       8.7397      0.00000
      6       8.9661      0.00000
      7       9.2347      0.00000
      8      11.2893      0.00000

 k-point    74 :       0.1184    0.1184    0.2368
  band No.  band energies     occupation 
      1      -5.6096      2.00000
      2       3.2561      2.00000
      3       4.2784      2.00000
      4       5.5174      2.00000
      5       8.7091      0.00000
      6       8.7866      0.00000
      7       9.0230      0.00000
      8      11.1356      0.00000

 k-point    75 :       0.0987    0.0987    0.1974
  band No.  band energies     occupation 
      1      -5.7547      2.00000
      2       3.7715      2.00000
      3       4.6433      2.00000
      4       5.6049      2.00000
      5       8.6346      0.00000
      6       8.6608      0.00000
      7       8.8322      0.00000
      8      10.8074      0.00000

 k-point    76 :       0.0789    0.0789    0.1579
  band No.  band energies     occupation 
      1      -5.8742      2.00000
      2       4.2938      2.00000
      3       4.9897      2.00000
      4       5.6722      2.00000
      5       8.5105      0.00000
      6       8.6041      0.00000
      7       8.6635      0.00000
      8      10.3371      0.00000

 k-point    77 :       0.0592    0.0592    0.1184
  band No.  band energies     occupation 
      1      -5.9677      2.00000
      2       4.8040      2.00000
      3       5.2995      2.00000
      4       5.7212      2.00000
      5       8.4135      0.00000
      6       8.5165      0.00000
      7       8.5392      0.00000
      8       9.8177      0.00000

 k-point    78 :       0.0395    0.0395    0.0789
  band No.  band energies     occupation 
      1      -6.0347      2.00000
      2       5.2730      2.00000
      3       5.5519      2.00000
      4       5.7537      2.00000
      5       8.3441      0.00000
      6       8.3976      0.00000
      7       8.4591      0.00000
      8       9.3485      0.00000

 k-point    79 :       0.0197    0.0197    0.0395
  band No.  band energies     occupation 
      1      -6.0751      2.00000
      2       5.6339      2.00000
      3       5.7190      2.00000
      4       5.7722      2.00000
      5       8.3025      0.00000
      6       8.3173      0.00000
      7       8.3530      0.00000
      8       9.0348      0.00000

 k-point    80 :       0.0000    0.0000    0.0000
  band No.  band energies     occupation 
      1      -6.0885      2.00000
      2       5.7782      2.00000
      3       5.7783      2.00000
      4       5.7783      2.00000
      5       8.2886      0.00000
      6       8.2886      0.00000
      7       8.2886      0.00000
      8       8.9344      0.00000


--------------------------------------------------------------------------------------------------------


 soft charge-density along one line, spin component           1
         0         1         2         3         4         5         6         7         8         9
 total charge-density along one line

 pseudopotential strength for first ion, spin component:           1
 18.418  25.696  -0.000  -0.000  -0.000  -0.000  -0.000  -0.000
 25.696  35.855  -0.000  -0.000  -0.000  -0.000  -0.000  -0.000
 -0.000  -0.000   4.179  -0.000  -0.000   7.788  -0.000  -0.000
 -0.000  -0.000  -0.000   4.179  -0.000  -0.000   7.788  -0.000
 -0.000  -0.000  -0.000  -0.000   4.179  -0.000  -0.000   7.788
 -0.000  -0.000   7.788  -0.000  -0.000  14.523  -0.000  -0.000
 -0.000  -0.000  -0.000   7.788  -0.000  -0.000  14.523  -0.000
 -0.000  -0.000  -0.000  -0.000   7.788  -0.000  -0.000  14.523
 total augmentation occupancy for first ion, spin component:           1
  2.000   0.000   0.000   0.000   0.000   0.000   0.000   0.000
  0.000   0.000   0.000   0.000   0.000   0.000   0.000   0.000
  0.000   0.000   0.667   0.000   0.000   0.000   0.000   0.000
  0.000   0.000   0.000   0.667   0.000   0.000   0.000   0.000
  0.000   0.000   0.000   0.000   0.667   0.000   0.000   0.000
  0.000   0.000   0.000   0.000   0.000   0.000   0.000   0.000
  0.000   0.000   0.000   0.000   0.000   0.000   0.000   0.000
  0.000   0.000   0.000   0.000   0.000   0.000   0.000   0.000


------------------------ aborting loop because EDIFF is reached ----------------------------------------





 total charge

# of ion       s       p       d       tot
------------------------------------------
    1        0.678   1.039   0.000   1.717
    2        0.678   1.039   0.000   1.717
--------------------------------------------------
tot          1.357   2.078   0.000   3.435

    CHARGE:  cpu time      0.0150: real time      0.0150
    FORLOC:  cpu time      0.0003: real time      0.0003
    FORNL :  cpu time      0.0427: real time      0.0427
    STRESS:  cpu time      0.1673: real time      0.1673
    FORCOR:  cpu time      0.0081: real time      0.0081
    FORHAR:  cpu time      0.0010: real time      0.0010
    OFIELD:  cpu time      0.0000: real time      0.0000

  FORCE on cell =-STRESS in cart. coord.  units (eV):
  Direction    XX          YY          ZZ          XY          YZ          ZX
  --------------------------------------------------------------------------------------
  Alpha Z     3.30011     3.30011     3.30011
  Ewald     -75.70138   -75.70138   -75.70138     0.00000    -0.00000    -0.00000
  Hartree     5.80711     5.80711     5.80711    -0.00000    -0.00000    -0.00000
  E(xc)     -25.48511   -25.48511   -25.48511     0.00000     0.00000     0.00000
  Local     -31.13861   -31.13861   -31.13861     0.00005     0.00005     0.00005
  n-local    78.26448    73.21804    77.19876    -1.88040    -0.83620    -1.27189
  augment   -10.92564   -10.92564   -10.92564    -0.00004    -0.00004    -0.00004
  Kinetic    63.27984    58.02161    62.56284    -1.32493    -0.94089    -1.75875
  Fock        0.00000     0.00000     0.00000     0.00000     0.00000     0.00000
  -------------------------------------------------------------------------------------
  Total       3.37168     3.37168     3.37168    -0.00000     0.00000     0.00000
  in kB     132.39501   132.39501   132.39501    -0.00000     0.00000     0.00000
  external pressure =      132.40 kB  Pullay stress =        0.00 kB


 VOLUME and BASIS-vectors are now :
 -----------------------------------------------------------------------------
  energy-cutoff  :      245.34
  volume of cell :       40.80
      direct lattice vectors                 reciprocal lattice vectors
     0.000000000  2.732447850  2.732447850    -0.182986109  0.182986109  0.182986109
     2.732447850  0.000000000  2.732447850     0.182986109 -0.182986109  0.182986109
     2.732447850  2.732447850  0.000000000     0.182986109  0.182986109 -0.182986109

  length of vectors
     3.864264808  3.864264808  3.864264808     0.316941238  0.316941238  0.316941238


 FORCES acting on ions
    electron-ion (+dipol)            ewald-force                    non-local-force                 convergence-correction
 -----------------------------------------------------------------------------------------------
   0.682E-05 0.682E-05 0.701E-05   0.191E-14 -.858E-15 -.165E-14   0.257E-15 0.316E-16 0.595E-16   -.178E-07 -.178E-07 -.150E-07
   -.682E-05 -.682E-05 -.701E-05   -.172E-14 0.634E-15 0.130E-14   -.258E-15 -.286E-17 0.190E-16   0.178E-07 0.178E-07 0.150E-07
 -----------------------------------------------------------------------------------------------
   -.139E-12 -.451E-13 0.223E-13   0.189E-15 -.224E-15 -.352E-15   -.739E-18 0.288E-16 0.785E-16   0.960E-15 0.685E-15 0.432E-15


 POSITION                                       TOTAL-FORCE (eV/Angst)
 -----------------------------------------------------------------------------------
      4.78178      4.78178      4.78178         0.000000      0.000000      0.000000
      0.68311      0.68311      0.68311        -0.000000     -0.000000     -0.000000
 -----------------------------------------------------------------------------------
    total drift:                               -0.000000     -0.000000      0.000000


--------------------------------------------------------------------------------------------------------



  FREE ENERGIE OF THE ION-ELECTRON SYSTEM (eV)
  ---------------------------------------------------
  free  energy   TOTEN  =        -6.91823365 eV

  energy  without entropy=       -6.91823365  energy(sigma->0) =       -6.91823365



--------------------------------------------------------------------------------------------------------


    POTLOK:  cpu time      0.0159: real time      0.0159


--------------------------------------------------------------------------------------------------------


 writing wavefunctions
     LOOP+:  cpu time      0.7939: real time      0.7986
    4ORBIT:  cpu time      0.0000: real time      0.0000



 total charge

# of ion       s       p       d       tot
------------------------------------------
    1        0.678   1.039   0.000   1.717
    2        0.678   1.039   0.000   1.717
--------------------------------------------------
tot          1.357   2.078   0.000   3.435


 total amount of memory used by VASP MPI-rank0    37314. kBytes
=======================================================================

   base      :      30000. kBytes
   nonl-proj :       1885. kBytes
   fftplans  :       2481. kBytes
   grid      :        987. kBytes
   one-center:          6. kBytes
   wavefun   :       1955. kBytes

  
  
 General timing and accounting informations for this job:
 ========================================================
  
                  Total CPU time used (sec):        1.377
                            User time (sec):        1.146
                          System time (sec):        0.231
                         Elapsed time (sec):        1.681
  
                   Maximum memory used (kb):       54452.
                   Average memory used (kb):          N/A
  
                          Minor page faults:        29876
                          Major page faults:          339
                 Voluntary context switches:         1421
