PROCAR lm decomposed
# of k-points:   80         # of bands:    8         # of ions:    2

 k-point     1 :    0.50000000 0.50000000 0.50000000     weight = 0.01250000

band     1 # energy   -3.79286134 # occ.  2.00000000

ion      s     py     pz     px    dxy    dyz    dz2    dxz  x2-y2    tot
    1  0.224  0.005  0.005  0.005  0.000  0.000  0.000  0.000  0.000  0.238
    2  0.224  0.005  0.005  0.005  0.000  0.000  0.000  0.000  0.000  0.238
tot    0.449  0.009  0.009  0.009  0.000  0.000  0.000  0.000  0.000  0.476

band     2 # energy   -1.14389827 # occ.  2.00000000

ion      s     py     pz     px    dxy    dyz    dz2    dxz  x2-y2    tot
    1  0.099  0.031  0.031  0.031  0.000  0.000  0.000  0.000  0.000  0.192
    2  0.099  0.031  0.031  0.031  0.000  0.000  0.000  0.000  0.000  0.192
tot    0.198  0.062  0.062  0.062  0.000  0.000  0.000  0.000  0.000  0.385

band     3 # energy    4.58091127 # occ.  2.00000000

ion      s     py     pz     px    dxy    dyz    dz2    dxz  x2-y2    tot
    1  0.000  0.109  0.000  0.109  0.000  0.000  0.000  0.000  0.000  0.218
    2  0.000  0.109  0.000  0.109  0.000  0.000  0.000  0.000  0.000  0.218
tot    0.000  0.218  0.000  0.218  0.000  0.000  0.000  0.000  0.000  0.437

band     4 # energy    4.58091129 # occ.  2.00000000

ion      s     py     pz     px    dxy    dyz    dz2    dxz  x2-y2    tot
    1  0.000  0.036  0.146  0.036  0.000  0.000  0.000  0.000  0.000  0.218
    2  0.000  0.036  0.146  0.036  0.000  0.000  0.000  0.000  0.000  0.218
tot    0.000  0.073  0.291  0.073  0.000  0.000  0.000  0.000  0.000  0.437

band     5 # energy    7.22838185 # occ.  0.00000000

ion      s     py     pz     px    dxy    dyz    dz2    dxz  x2-y2    tot
    1  0.187  0.007  0.007  0.007  0.000  0.000  0.000  0.000  0.000  0.208
    2  0.187  0.007  0.007  0.007  0.000  0.000  0.000  0.000  0.000  0.208
tot    0.375  0.014  0.014  0.014  0.000  0.000  0.000  0.000  0.000  0.416

band     6 # energy    9.07877211 # occ.  0.00000000

ion      s     py     pz     px    dxy    dyz    dz2    dxz  x2-y2    tot
    1  0.000  0.048  0.000  0.048  0.000  0.000  0.000  0.000  0.000  0.096
    2  0.000  0.048  0.000  0.048  0.000  0.000  0.000  0.000  0.000  0.096
tot    0.000  0.096  0.000  0.096  0.000  0.000  0.000  0.000  0.000  0.192

band     7 # energy    9.07877213 # occ.  0.00000000

ion      s     py     pz     px    dxy    dyz    dz2    dxz  x2-y2    tot
    1  0.000  0.016  0.064  0.016  0.000  0.000  0.000  0.000  0.000  0.096
    2  0.000  0.016  0.064  0.016  0.000  0.000  0.000  0.000  0.000  0.096
tot    0.000  0.032  0.128  0.032  0.000  0.000  0.000  0.000  0.000  0.192

band     8 # energy   13.41793311 # occ.  0.00000000

ion      s     py     pz     px    dxy    dyz    dz2    dxz  x2-y2    tot
    1  0.006  0.018  0.018  0.018  0.000  0.000  0.000  0.000  0.000  0.059
    2  0.006  0.018  0.018  0.018  0.000  0.000  0.000  0.000  0.000  0.059
tot    0.012  0.036  0.036  0.036  0.000  0.000  0.000  0.000  0.000  0.119


 k-point     2 :    0.47368421 0.47368421 0.47368421     weight = 0.01250000

band     1 # energy   -3.83179600 # occ.  2.00000000

ion      s     py     pz     px    dxy    dyz    dz2    dxz  x2-y2    tot
    1  0.223  0.005  0.005  0.005  0.000  0.000  0.000  0.000  0.000  0.236
    2  0.223  0.005  0.005  0.005  0.000  0.000  0.000  0.000  0.000  0.236
tot    0.445  0.009  0.009  0.009  0.000  0.000  0.000  0.000  0.000  0.473

band     2 # energy   -1.08873199 # occ.  2.00000000

ion      s     py     pz     px    dxy    dyz    dz2    dxz  x2-y2    tot
    1  0.100  0.031  0.031  0.031  0.000  0.000  0.000  0.000  0.000  0.193
    2  0.100  0.031  0.031  0.031  0.000  0.000  0.000  0.000  0.000  0.193
tot    0.200  0.062  0.062  0.062  0.000  0.000  0.000  0.000  0.000  0.386

band     3 # energy    4.58520927 # occ.  2.00000000

ion      s     py     pz     px    dxy    dyz    dz2    dxz  x2-y2    tot
    1  0.000  0.109  0.000  0.109  0.000  0.000  0.000  0.000  0.000  0.218
    2  0.000  0.109  0.000  0.109  0.000  0.000  0.000  0.000  0.000  0.218
tot    0.000  0.218  0.000  0.218  0.000  0.000  0.000  0.000  0.000  0.436

band     4 # energy    4.58520929 # occ.  2.00000000

ion      s     py     pz     px    dxy    dyz    dz2    dxz  x2-y2    tot
    1  0.000  0.036  0.145  0.036  0.000  0.000  0.000  0.000  0.000  0.218
    2  0.000  0.036  0.145  0.036  0.000  0.000  0.000  0.000  0.000  0.218
tot    0.000  0.073  0.291  0.073  0.000  0.000  0.000  0.000  0.000  0.436

band     5 # energy    7.23377048 # occ.  0.00000000

ion      s     py     pz     px    dxy    dyz    dz2    dxz  x2-y2    tot
    1  0.187  0.007  0.007  0.007  0.000  0.000  0.000  0.000  0.000  0.208
    2  0.187  0.007  0.007  0.007  0.000  0.000  0.000  0.000  0.000  0.208
tot    0.374  0.014  0.014  0.014  0.000  0.000  0.000  0.000  0.000  0.416

band     6 # energy    9.08356708 # occ.  0.00000000

ion      s     py     pz     px    dxy    dyz    dz2    dxz  x2-y2    tot
    1  0.000  0.048  0.000  0.048  0.000  0.000  0.000  0.000  0.000  0.096
    2  0.000  0.048  0.000  0.048  0.000  0.000  0.000  0.000  0.000  0.096
tot    0.000  0.096  0.000  0.096  0.000  0.000  0.000  0.000  0.000  0.192

band     7 # energy    9.08356709 # occ.  0.00000000

ion      s     py     pz     px    dxy    dyz    dz2    dxz  x2-y2    tot
    1  0.000  0.016  0.064  0.016  0.000  0.000  0.000  0.000  0.000  0.096
    2  0.000  0.016  0.064  0.016  0.000  0.000  0.000  0.000  0.000  0.096
tot    0.000  0.032  0.128  0.032  0.000  0.000  0.000  0.000  0.000  0.192

band     8 # energy   13.42614468 # occ.  0.00000000

ion      s     py     pz     px    dxy    dyz    dz2    dxz  x2-y2    tot
    1  0.006  0.018  0.018  0.018  0.000  0.000  0.000  0.000  0.000  0.060
    2  0.006  0.018  0.018  0.018  0.000  0.000  0.000  0.000  0.000  0.060
tot    0.011  0.036  0.036  0.036  0.000  0.000  0.000  0.000  0.000  0.121


 k-point     3 :    0.44736842 0.44736842 0.44736842     weight = 0.01250000

band     1 # energy   -3.93805453 # occ.  2.00000000

ion      s     py     pz     px    dxy    dyz    dz2    dxz  x2-y2    tot
    1  0.220  0.005  0.005  0.005  0.000  0.000  0.000  0.000  0.000  0.234
    2  0.220  0.005  0.005  0.005  0.000  0.000  0.000  0.000  0.000  0.234
tot    0.439  0.010  0.010  0.010  0.000  0.000  0.000  0.000  0.000  0.468

band     2 # energy   -0.93164702 # occ.  2.00000000

ion      s     py     pz     px    dxy    dyz    dz2    dxz  x2-y2    tot
    1  0.103  0.031  0.031  0.031  0.000  0.000  0.000  0.000  0.000  0.196
    2  0.103  0.031  0.031  0.031  0.000  0.000  0.000  0.000  0.000  0.196
tot    0.205  0.062  0.062  0.062  0.000  0.000  0.000  0.000  0.000  0.392

band     3 # energy    4.60007000 # occ.  2.00000000

ion      s     py     pz     px    dxy    dyz    dz2    dxz  x2-y2    tot
    1  0.000  0.109  0.000  0.109  0.000  0.000  0.000  0.000  0.000  0.218
    2  0.000  0.109  0.000  0.109  0.000  0.000  0.000  0.000  0.000  0.218
tot    0.000  0.218  0.000  0.218  0.000  0.000  0.000  0.000  0.000  0.436

band     4 # energy    4.60007002 # occ.  2.00000000

ion      s     py     pz     px    dxy    dyz    dz2    dxz  x2-y2    tot
    1  0.000  0.036  0.145  0.036  0.000  0.000  0.000  0.000  0.000  0.218
    2  0.000  0.036  0.145  0.036  0.000  0.000  0.000  0.000  0.000  0.218
tot    0.000  0.073  0.290  0.073  0.000  0.000  0.000  0.000  0.000  0.436

band     5 # energy    7.25084584 # occ.  0.00000000

ion      s     py     pz     px    dxy    dyz    dz2    dxz  x2-y2    tot
    1  0.186  0.007  0.007  0.007  0.000  0.000  0.000  0.000  0.000  0.208
    2  0.186  0.007  0.007  0.007  0.000  0.000  0.000  0.000  0.000  0.208
tot    0.372  0.014  0.014  0.014  0.000  0.000  0.000  0.000  0.000  0.416

band     6 # energy    9.09987074 # occ.  0.00000000

ion      s     py     pz     px    dxy    dyz    dz2    dxz  x2-y2    tot
    1  0.000  0.049  0.000  0.049  0.000  0.000  0.000  0.000  0.000  0.098
    2  0.000  0.049  0.000  0.049  0.000  0.000  0.000  0.000  0.000  0.098
tot    0.000  0.098  0.000  0.098  0.000  0.000  0.000  0.000  0.000  0.195

band     7 # energy    9.09987075 # occ.  0.00000000

ion      s     py     pz     px    dxy    dyz    dz2    dxz  x2-y2    tot
    1  0.000  0.016  0.065  0.016  0.000  0.000  0.000  0.000  0.000  0.098
    2  0.000  0.016  0.065  0.016  0.000  0.000  0.000  0.000  0.000  0.098
tot    0.000  0.033  0.130  0.033  0.000  0.000  0.000  0.000  0.000  0.195

band     8 # energy   13.45115776 # occ.  0.00000000

ion      s     py     pz     px    dxy    dyz    dz2    dxz  x2-y2    tot
    1  0.005  0.019  0.019  0.019  0.000  0.000  0.000  0.000  0.000  0.063
    2  0.005  0.019  0.019  0.019  0.000  0.000  0.000  0.000  0.000  0.063
tot    0.010  0.038  0.038  0.038  0.000  0.000  0.000  0.000  0.000  0.125


 k-point     4 :    0.42105263 0.42105263 0.42105263     weight = 0.01250000

band     1 # energy   -4.09221276 # occ.  2.00000000

ion      s     py     pz     px    dxy    dyz    dz2    dxz  x2-y2    tot
    1  0.216  0.005  0.005  0.005  0.000  0.000  0.000  0.000  0.000  0.231
    2  0.216  0.005  0.005  0.005  0.000  0.000  0.000  0.000  0.000  0.231
tot    0.433  0.010  0.010  0.010  0.000  0.000  0.000  0.000  0.000  0.462

band     2 # energy   -0.69291839 # occ.  2.00000000

ion      s     py     pz     px    dxy    dyz    dz2    dxz  x2-y2    tot
    1  0.105  0.031  0.031  0.031  0.000  0.000  0.000  0.000  0.000  0.199
    2  0.105  0.031  0.031  0.031  0.000  0.000  0.000  0.000  0.000  0.199
tot    0.210  0.063  0.063  0.063  0.000  0.000  0.000  0.000  0.000  0.398

band     3 # energy    4.62480663 # occ.  2.00000000

ion      s     py     pz     px    dxy    dyz    dz2    dxz  x2-y2    tot
    1  0.000  0.109  0.000  0.109  0.000  0.000  0.000  0.000  0.000  0.217
    2  0.000  0.109  0.000  0.109  0.000  0.000  0.000  0.000  0.000  0.217
tot    0.000  0.217  0.000  0.217  0.000  0.000  0.000  0.000  0.000  0.435

band     4 # energy    4.62480664 # occ.  2.00000000

ion      s     py     pz     px    dxy    dyz    dz2    dxz  x2-y2    tot
    1  0.000  0.036  0.145  0.036  0.000  0.000  0.000  0.000  0.000  0.217
    2  0.000  0.036  0.145  0.036  0.000  0.000  0.000  0.000  0.000  0.217
tot    0.000  0.072  0.290  0.072  0.000  0.000  0.000  0.000  0.000  0.435

band     5 # energy    7.27922329 # occ.  0.00000000

ion      s     py     pz     px    dxy    dyz    dz2    dxz  x2-y2    tot
    1  0.185  0.008  0.008  0.008  0.000  0.000  0.000  0.000  0.000  0.208
    2  0.185  0.008  0.008  0.008  0.000  0.000  0.000  0.000  0.000  0.208
tot    0.369  0.015  0.015  0.015  0.000  0.000  0.000  0.000  0.000  0.415

band     6 # energy    9.12555527 # occ.  0.00000000

ion      s     py     pz     px    dxy    dyz    dz2    dxz  x2-y2    tot
    1  0.000  0.050  0.000  0.050  0.000  0.000  0.000  0.000  0.000  0.100
    2  0.000  0.050  0.000  0.050  0.000  0.000  0.000  0.000  0.000  0.100
tot    0.000  0.100  0.000  0.100  0.000  0.000  0.000  0.000  0.000  0.200

band     7 # energy    9.12555528 # occ.  0.00000000

ion      s     py     pz     px    dxy    dyz    dz2    dxz  x2-y2    tot
    1  0.000  0.017  0.067  0.017  0.000  0.000  0.000  0.000  0.000  0.100
    2  0.000  0.017  0.067  0.017  0.000  0.000  0.000  0.000  0.000  0.100
tot    0.000  0.033  0.133  0.033  0.000  0.000  0.000  0.000  0.000  0.200

band     8 # energy   13.48956279 # occ.  0.00000000

ion      s     py     pz     px    dxy    dyz    dz2    dxz  x2-y2    tot
    1  0.004  0.021  0.021  0.021  0.000  0.000  0.000  0.000  0.000  0.068
    2  0.004  0.021  0.021  0.021  0.000  0.000  0.000  0.000  0.000  0.068
tot    0.009  0.042  0.042  0.042  0.000  0.000  0.000  0.000  0.000  0.135


 k-point     5 :    0.39473684 0.39473684 0.39473684     weight = 0.01250000

band     1 # energy   -4.27422626 # occ.  2.00000000

ion      s     py     pz     px    dxy    dyz    dz2    dxz  x2-y2    tot
    1  0.213  0.005  0.005  0.005  0.000  0.000  0.000  0.000  0.000  0.228
    2  0.213  0.005  0.005  0.005  0.000  0.000  0.000  0.000  0.000  0.228
tot    0.427  0.010  0.010  0.010  0.000  0.000  0.000  0.000  0.000  0.456

band     2 # energy   -0.39278500 # occ.  2.00000000

ion      s     py     pz     px    dxy    dyz    dz2    dxz  x2-y2    tot
    1  0.107  0.032  0.032  0.032  0.000  0.000  0.000  0.000  0.000  0.202
    2  0.107  0.032  0.032  0.032  0.000  0.000  0.000  0.000  0.000  0.202
tot    0.213  0.064  0.064  0.064  0.000  0.000  0.000  0.000  0.000  0.404

band     3 # energy    4.65940068 # occ.  2.00000000

ion      s     py     pz     px    dxy    dyz    dz2    dxz  x2-y2    tot
    1  0.000  0.109  0.000  0.109  0.000  0.000  0.000  0.000  0.000  0.217
    2  0.000  0.109  0.000  0.109  0.000  0.000  0.000  0.000  0.000  0.217
tot    0.000  0.217  0.000  0.217  0.000  0.000  0.000  0.000  0.000  0.434

band     4 # energy    4.65940070 # occ.  2.00000000

ion      s     py     pz     px    dxy    dyz    dz2    dxz  x2-y2    tot
    1  0.000  0.036  0.145  0.036  0.000  0.000  0.000  0.000  0.000  0.217
    2  0.000  0.036  0.145  0.036  0.000  0.000  0.000  0.000  0.000  0.217
tot    0.000  0.072  0.289  0.072  0.000  0.000  0.000  0.000  0.000  0.434

band     5 # energy    7.32003846 # occ.  0.00000000

ion      s     py     pz     px    dxy    dyz    dz2    dxz  x2-y2    tot
    1  0.182  0.008  0.008  0.008  0.000  0.000  0.000  0.000  0.000  0.207
    2  0.182  0.008  0.008  0.008  0.000  0.000  0.000  0.000  0.000  0.207
tot    0.364  0.017  0.017  0.017  0.000  0.000  0.000  0.000  0.000  0.414

band     6 # energy    9.15818303 # occ.  0.00000000

ion      s     py     pz     px    dxy    dyz    dz2    dxz  x2-y2    tot
    1  0.000  0.052  0.000  0.052  0.000  0.000  0.000  0.000  0.000  0.103
    2  0.000  0.052  0.000  0.052  0.000  0.000  0.000  0.000  0.000  0.103
tot    0.000  0.103  0.000  0.103  0.000  0.000  0.000  0.000  0.000  0.207

band     7 # energy    9.15818305 # occ.  0.00000000

ion      s     py     pz     px    dxy    dyz    dz2    dxz  x2-y2    tot
    1  0.000  0.017  0.069  0.017  0.000  0.000  0.000  0.000  0.000  0.103
    2  0.000  0.017  0.069  0.017  0.000  0.000  0.000  0.000  0.000  0.103
tot    0.000  0.034  0.138  0.034  0.000  0.000  0.000  0.000  0.000  0.207

band     8 # energy   13.53453371 # occ.  0.00000000

ion      s     py     pz     px    dxy    dyz    dz2    dxz  x2-y2    tot
    1  0.004  0.024  0.024  0.024  0.000  0.000  0.000  0.000  0.000  0.077
    2  0.004  0.024  0.024  0.024  0.000  0.000  0.000  0.000  0.000  0.077
tot    0.007  0.049  0.049  0.049  0.000  0.000  0.000  0.000  0.000  0.154


 k-point     6 :    0.36842105 0.36842105 0.36842105     weight = 0.01250000

band     1 # energy   -4.46898555 # occ.  2.00000000

ion      s     py     pz     px    dxy    dyz    dz2    dxz  x2-y2    tot
    1  0.211  0.005  0.005  0.005  0.000  0.000  0.000  0.000  0.000  0.225
    2  0.211  0.005  0.005  0.005  0.000  0.000  0.000  0.000  0.000  0.225
tot    0.423  0.009  0.009  0.009  0.000  0.000  0.000  0.000  0.000  0.451

band     2 # energy   -0.04681074 # occ.  2.00000000

ion      s     py     pz     px    dxy    dyz    dz2    dxz  x2-y2    tot
    1  0.107  0.033  0.033  0.033  0.000  0.000  0.000  0.000  0.000  0.205
    2  0.107  0.033  0.033  0.033  0.000  0.000  0.000  0.000  0.000  0.205
tot    0.214  0.065  0.065  0.065  0.000  0.000  0.000  0.000  0.000  0.410

band     3 # energy    4.70373041 # occ.  2.00000000

ion      s     py     pz     px    dxy    dyz    dz2    dxz  x2-y2    tot
    1  0.000  0.108  0.000  0.108  0.000  0.000  0.000  0.000  0.000  0.216
    2  0.000  0.108  0.000  0.108  0.000  0.000  0.000  0.000  0.000  0.216
tot    0.000  0.216  0.000  0.216  0.000  0.000  0.000  0.000  0.000  0.433

band     4 # energy    4.70373043 # occ.  2.00000000

ion      s     py     pz     px    dxy    dyz    dz2    dxz  x2-y2    tot
    1  0.000  0.036  0.144  0.036  0.000  0.000  0.000  0.000  0.000  0.216
    2  0.000  0.036  0.144  0.036  0.000  0.000  0.000  0.000  0.000  0.216
tot    0.000  0.072  0.289  0.072  0.000  0.000  0.000  0.000  0.000  0.433

band     5 # energy    7.37040164 # occ.  0.00000000

ion      s     py     pz     px    dxy    dyz    dz2    dxz  x2-y2    tot
    1  0.179  0.009  0.009  0.009  0.000  0.000  0.000  0.000  0.000  0.207
    2  0.179  0.009  0.009  0.009  0.000  0.000  0.000  0.000  0.000  0.207
tot    0.359  0.019  0.019  0.019  0.000  0.000  0.000  0.000  0.000  0.414

band     6 # energy    9.19407020 # occ.  0.00000000

ion      s     py     pz     px    dxy    dyz    dz2    dxz  x2-y2    tot
    1  0.000  0.054  0.000  0.054  0.000  0.000  0.000  0.000  0.000  0.108
    2  0.000  0.054  0.000  0.054  0.000  0.000  0.000  0.000  0.000  0.108
tot    0.000  0.108  0.000  0.108  0.000  0.000  0.000  0.000  0.000  0.216

band     7 # energy    9.19407021 # occ.  0.00000000

ion      s     py     pz     px    dxy    dyz    dz2    dxz  x2-y2    tot
    1  0.000  0.018  0.072  0.018  0.000  0.000  0.000  0.000  0.000  0.108
    2  0.000  0.018  0.072  0.018  0.000  0.000  0.000  0.000  0.000  0.108
tot    0.000  0.036  0.144  0.036  0.000  0.000  0.000  0.000  0.000  0.216

band     8 # energy   13.56986501 # occ.  0.00000000

ion      s     py     pz     px    dxy    dyz    dz2    dxz  x2-y2    tot
    1  0.004  0.030  0.030  0.030  0.000  0.000  0.000  0.000  0.000  0.095
    2  0.004  0.030  0.030  0.030  0.000  0.000  0.000  0.000  0.000  0.095
tot    0.009  0.060  0.060  0.060  0.000  0.000  0.000  0.000  0.000  0.190


 k-point     7 :    0.34210526 0.34210526 0.34210526     weight = 0.01250000

band     1 # energy   -4.66628687 # occ.  2.00000000

ion      s     py     pz     px    dxy    dyz    dz2    dxz  x2-y2    tot
    1  0.210  0.004  0.004  0.004  0.000  0.000  0.000  0.000  0.000  0.223
    2  0.210  0.004  0.004  0.004  0.000  0.000  0.000  0.000  0.000  0.223
tot    0.420  0.009  0.009  0.009  0.000  0.000  0.000  0.000  0.000  0.446

band     2 # energy    0.33444340 # occ.  2.00000000

ion      s     py     pz     px    dxy    dyz    dz2    dxz  x2-y2    tot
    1  0.106  0.034  0.034  0.034  0.000  0.000  0.000  0.000  0.000  0.208
    2  0.106  0.034  0.034  0.034  0.000  0.000  0.000  0.000  0.000  0.208
tot    0.212  0.068  0.068  0.068  0.000  0.000  0.000  0.000  0.000  0.415

band     3 # energy    4.75761784 # occ.  2.00000000

ion      s     py     pz     px    dxy    dyz    dz2    dxz  x2-y2    tot
    1  0.000  0.108  0.000  0.108  0.000  0.000  0.000  0.000  0.000  0.216
    2  0.000  0.108  0.000  0.108  0.000  0.000  0.000  0.000  0.000  0.216
tot    0.000  0.216  0.000  0.216  0.000  0.000  0.000  0.000  0.000  0.431

band     4 # energy    4.75761786 # occ.  2.00000000

ion      s     py     pz     px    dxy    dyz    dz2    dxz  x2-y2    tot
    1  0.000  0.036  0.144  0.036  0.000  0.000  0.000  0.000  0.000  0.216
    2  0.000  0.036  0.144  0.036  0.000  0.000  0.000  0.000  0.000  0.216
tot    0.000  0.072  0.288  0.072  0.000  0.000  0.000  0.000  0.000  0.431

band     5 # energy    7.43133772 # occ.  0.00000000

ion      s     py     pz     px    dxy    dyz    dz2    dxz  x2-y2    tot
    1  0.176  0.010  0.010  0.010  0.000  0.000  0.000  0.000  0.000  0.207
    2  0.176  0.010  0.010  0.010  0.000  0.000  0.000  0.000  0.000  0.207
tot    0.351  0.021  0.021  0.021  0.000  0.000  0.000  0.000  0.000  0.414

band     6 # energy    9.22669608 # occ.  0.00000000

ion      s     py     pz     px    dxy    dyz    dz2    dxz  x2-y2    tot
    1  0.000  0.057  0.000  0.057  0.000  0.000  0.000  0.000  0.000  0.114
    2  0.000  0.057  0.000  0.057  0.000  0.000  0.000  0.000  0.000  0.114
tot    0.000  0.114  0.000  0.114  0.000  0.000  0.000  0.000  0.000  0.228

band     7 # energy    9.22669609 # occ.  0.00000000

ion      s     py     pz     px    dxy    dyz    dz2    dxz  x2-y2    tot
    1  0.000  0.019  0.076  0.019  0.000  0.000  0.000  0.000  0.000  0.114
    2  0.000  0.019  0.076  0.019  0.000  0.000  0.000  0.000  0.000  0.114
tot    0.000  0.038  0.152  0.038  0.000  0.000  0.000  0.000  0.000  0.228

band     8 # energy   13.55788778 # occ.  0.00000000

ion      s     py     pz     px    dxy    dyz    dz2    dxz  x2-y2    tot
    1  0.012  0.039  0.040  0.040  0.000  0.000  0.000  0.000  0.000  0.130
    2  0.012  0.039  0.040  0.040  0.000  0.000  0.000  0.000  0.000  0.130
tot    0.024  0.079  0.079  0.079  0.000  0.000  0.000  0.000  0.000  0.261


 k-point     8 :    0.31578947 0.31578947 0.31578947     weight = 0.01250000

band     1 # energy   -4.85939256 # occ.  2.00000000

ion      s     py     pz     px    dxy    dyz    dz2    dxz  x2-y2    tot
    1  0.210  0.004  0.004  0.004  0.000  0.000  0.000  0.000  0.000  0.221
    2  0.210  0.004  0.004  0.004  0.000  0.000  0.000  0.000  0.000  0.221
tot    0.419  0.008  0.008  0.008  0.000  0.000  0.000  0.000  0.000  0.442

band     2 # energy    0.74497886 # occ.  2.00000000

ion      s     py     pz     px    dxy    dyz    dz2    dxz  x2-y2    tot
    1  0.105  0.035  0.035  0.035  0.000  0.000  0.000  0.000  0.000  0.210
    2  0.105  0.035  0.035  0.035  0.000  0.000  0.000  0.000  0.000  0.210
tot    0.209  0.071  0.071  0.071  0.000  0.000  0.000  0.000  0.000  0.421

band     3 # energy    4.82110165 # occ.  2.00000000

ion      s     py     pz     px    dxy    dyz    dz2    dxz  x2-y2    tot
    1  0.000  0.108  0.000  0.108  0.000  0.000  0.000  0.000  0.000  0.215
    2  0.000  0.108  0.000  0.108  0.000  0.000  0.000  0.000  0.000  0.215
tot    0.000  0.215  0.000  0.215  0.000  0.000  0.000  0.000  0.000  0.430

band     4 # energy    4.82110167 # occ.  2.00000000

ion      s     py     pz     px    dxy    dyz    dz2    dxz  x2-y2    tot
    1  0.000  0.036  0.143  0.036  0.000  0.000  0.000  0.000  0.000  0.215
    2  0.000  0.036  0.143  0.036  0.000  0.000  0.000  0.000  0.000  0.215
tot    0.000  0.072  0.287  0.072  0.000  0.000  0.000  0.000  0.000  0.430

band     5 # energy    7.50246340 # occ.  0.00000000

ion      s     py     pz     px    dxy    dyz    dz2    dxz  x2-y2    tot
    1  0.171  0.012  0.012  0.012  0.000  0.000  0.000  0.000  0.000  0.207
    2  0.171  0.012  0.012  0.012  0.000  0.000  0.000  0.000  0.000  0.207
tot    0.343  0.024  0.024  0.024  0.000  0.000  0.000  0.000  0.000  0.413

band     6 # energy    9.25247994 # occ.  0.00000000

ion      s     py     pz     px    dxy    dyz    dz2    dxz  x2-y2    tot
    1  0.000  0.060  0.000  0.060  0.000  0.000  0.000  0.000  0.000  0.121
    2  0.000  0.060  0.000  0.060  0.000  0.000  0.000  0.000  0.000  0.121
tot    0.000  0.121  0.000  0.121  0.000  0.000  0.000  0.000  0.000  0.241

band     7 # energy    9.25247996 # occ.  0.00000000

ion      s     py     pz     px    dxy    dyz    dz2    dxz  x2-y2    tot
    1  0.000  0.020  0.080  0.020  0.000  0.000  0.000  0.000  0.000  0.121
    2  0.000  0.020  0.080  0.020  0.000  0.000  0.000  0.000  0.000  0.121
tot    0.000  0.040  0.161  0.040  0.000  0.000  0.000  0.000  0.000  0.241

band     8 # energy   13.43061371 # occ.  0.00000000

ion      s     py     pz     px    dxy    dyz    dz2    dxz  x2-y2    tot
    1  0.037  0.048  0.051  0.050  0.000  0.000  0.000  0.000  0.000  0.186
    2  0.037  0.048  0.050  0.052  0.000  0.000  0.000  0.000  0.000  0.186
tot    0.073  0.095  0.102  0.102  0.000  0.000  0.000  0.000  0.000  0.372


 k-point     9 :    0.28947368 0.28947368 0.28947368     weight = 0.01250000

band     1 # energy   -5.04426961 # occ.  2.00000000

ion      s     py     pz     px    dxy    dyz    dz2    dxz  x2-y2    tot
    1  0.209  0.003  0.003  0.003  0.000  0.000  0.000  0.000  0.000  0.220
    2  0.209  0.003  0.003  0.003  0.000  0.000  0.000  0.000  0.000  0.220
tot    0.419  0.007  0.007  0.007  0.000  0.000  0.000  0.000  0.000  0.439

band     2 # energy    1.17736631 # occ.  2.00000000

ion      s     py     pz     px    dxy    dyz    dz2    dxz  x2-y2    tot
    1  0.102  0.037  0.037  0.037  0.000  0.000  0.000  0.000  0.000  0.212
    2  0.102  0.037  0.037  0.037  0.000  0.000  0.000  0.000  0.000  0.212
tot    0.204  0.074  0.074  0.074  0.000  0.000  0.000  0.000  0.000  0.425

band     3 # energy    4.89348022 # occ.  2.00000000

ion      s     py     pz     px    dxy    dyz    dz2    dxz  x2-y2    tot
    1  0.000  0.107  0.000  0.107  0.000  0.000  0.000  0.000  0.000  0.214
    2  0.000  0.107  0.000  0.107  0.000  0.000  0.000  0.000  0.000  0.214
tot    0.000  0.214  0.000  0.214  0.000  0.000  0.000  0.000  0.000  0.429

band     4 # energy    4.89348024 # occ.  2.00000000

ion      s     py     pz     px    dxy    dyz    dz2    dxz  x2-y2    tot
    1  0.000  0.036  0.143  0.036  0.000  0.000  0.000  0.000  0.000  0.214
    2  0.000  0.036  0.143  0.036  0.000  0.000  0.000  0.000  0.000  0.214
tot    0.000  0.071  0.286  0.071  0.000  0.000  0.000  0.000  0.000  0.429

band     5 # energy    7.58295489 # occ.  0.00000000

ion      s     py     pz     px    dxy    dyz    dz2    dxz  x2-y2    tot
    1  0.166  0.013  0.013  0.013  0.000  0.000  0.000  0.000  0.000  0.207
    2  0.166  0.013  0.013  0.013  0.000  0.000  0.000  0.000  0.000  0.207
tot    0.333  0.027  0.027  0.027  0.000  0.000  0.000  0.000  0.000  0.413

band     6 # energy    9.26213726 # occ.  0.00000000

ion      s     py     pz     px    dxy    dyz    dz2    dxz  x2-y2    tot
    1  0.000  0.064  0.000  0.064  0.000  0.000  0.000  0.000  0.000  0.128
    2  0.000  0.064  0.000  0.064  0.000  0.000  0.000  0.000  0.000  0.128
tot    0.000  0.128  0.000  0.128  0.000  0.000  0.000  0.000  0.000  0.257

band     7 # energy    9.26213727 # occ.  0.00000000

ion      s     py     pz     px    dxy    dyz    dz2    dxz  x2-y2    tot
    1  0.000  0.021  0.086  0.021  0.000  0.000  0.000  0.000  0.000  0.128
    2  0.000  0.021  0.086  0.021  0.000  0.000  0.000  0.000  0.000  0.128
tot    0.000  0.043  0.171  0.043  0.000  0.000  0.000  0.000  0.000  0.257

band     8 # energy   13.14603864 # occ.  0.00000000

ion      s     py     pz     px    dxy    dyz    dz2    dxz  x2-y2    tot
    1  0.071  0.053  0.055  0.054  0.000  0.000  0.000  0.000  0.000  0.233
    2  0.071  0.053  0.054  0.054  0.000  0.000  0.000  0.000  0.000  0.233
tot    0.142  0.106  0.109  0.109  0.000  0.000  0.000  0.000  0.000  0.466


 k-point    10 :    0.26315789 0.26315789 0.26315789     weight = 0.01250000

band     1 # energy   -5.21790745 # occ.  2.00000000

ion      s     py     pz     px    dxy    dyz    dz2    dxz  x2-y2    tot
    1  0.209  0.003  0.003  0.003  0.000  0.000  0.000  0.000  0.000  0.218
    2  0.209  0.003  0.003  0.003  0.000  0.000  0.000  0.000  0.000  0.218
tot    0.419  0.006  0.006  0.006  0.000  0.000  0.000  0.000  0.000  0.436

band     2 # energy    1.62880762 # occ.  2.00000000

ion      s     py     pz     px    dxy    dyz    dz2    dxz  x2-y2    tot
    1  0.098  0.039  0.039  0.039  0.000  0.000  0.000  0.000  0.000  0.214
    2  0.098  0.039  0.039  0.039  0.000  0.000  0.000  0.000  0.000  0.214
tot    0.197  0.077  0.077  0.077  0.000  0.000  0.000  0.000  0.000  0.428

band     3 # energy    4.97435519 # occ.  2.00000000

ion      s     py     pz     px    dxy    dyz    dz2    dxz  x2-y2    tot
    1  0.000  0.107  0.000  0.107  0.000  0.000  0.000  0.000  0.000  0.214
    2  0.000  0.107  0.000  0.107  0.000  0.000  0.000  0.000  0.000  0.214
tot    0.000  0.214  0.000  0.214  0.000  0.000  0.000  0.000  0.000  0.428

band     4 # energy    4.97435521 # occ.  2.00000000

ion      s     py     pz     px    dxy    dyz    dz2    dxz  x2-y2    tot
    1  0.000  0.036  0.143  0.036  0.000  0.000  0.000  0.000  0.000  0.214
    2  0.000  0.036  0.143  0.036  0.000  0.000  0.000  0.000  0.000  0.214
tot    0.000  0.071  0.285  0.071  0.000  0.000  0.000  0.000  0.000  0.428

band     5 # energy    7.67192125 # occ.  0.00000000

ion      s     py     pz     px    dxy    dyz    dz2    dxz  x2-y2    tot
    1  0.161  0.015  0.015  0.015  0.000  0.000  0.000  0.000  0.000  0.206
    2  0.161  0.015  0.015  0.015  0.000  0.000  0.000  0.000  0.000  0.206
tot    0.322  0.030  0.030  0.030  0.000  0.000  0.000  0.000  0.000  0.413

band     6 # energy    9.24774230 # occ.  0.00000000

ion      s     py     pz     px    dxy    dyz    dz2    dxz  x2-y2    tot
    1  0.000  0.068  0.000  0.068  0.000  0.000  0.000  0.000  0.000  0.136
    2  0.000  0.068  0.000  0.068  0.000  0.000  0.000  0.000  0.000  0.136
tot    0.000  0.136  0.000  0.136  0.000  0.000  0.000  0.000  0.000  0.272

band     7 # energy    9.24774231 # occ.  0.00000000

ion      s     py     pz     px    dxy    dyz    dz2    dxz  x2-y2    tot
    1  0.000  0.023  0.091  0.023  0.000  0.000  0.000  0.000  0.000  0.136
    2  0.000  0.023  0.091  0.023  0.000  0.000  0.000  0.000  0.000  0.136
tot    0.000  0.045  0.182  0.045  0.000  0.000  0.000  0.000  0.000  0.272

band     8 # energy   12.75803792 # occ.  0.00000000

ion      s     py     pz     px    dxy    dyz    dz2    dxz  x2-y2    tot
    1  0.099  0.053  0.053  0.053  0.000  0.000  0.000  0.000  0.000  0.257
    2  0.099  0.053  0.053  0.053  0.000  0.000  0.000  0.000  0.000  0.257
tot    0.199  0.105  0.105  0.105  0.000  0.000  0.000  0.000  0.000  0.514


 k-point    11 :    0.23684211 0.23684211 0.23684211     weight = 0.01250000

band     1 # energy   -5.37840159 # occ.  2.00000000

ion      s     py     pz     px    dxy    dyz    dz2    dxz  x2-y2    tot
    1  0.210  0.002  0.002  0.002  0.000  0.000  0.000  0.000  0.000  0.217
    2  0.210  0.002  0.002  0.002  0.000  0.000  0.000  0.000  0.000  0.217
tot    0.419  0.005  0.005  0.005  0.000  0.000  0.000  0.000  0.000  0.434

band     2 # energy    2.09597186 # occ.  2.00000000
