 vasp.6.3.2 27Jun22 (build Dec  9 2025 07:45:44) complex                         
 executed on              LinuxNV date 2026.01.18  03:20:56
 running on    1 total cores
 distrk:  each k-point on    1 cores,    1 groups
 distr:  one band on NCORE=   1 cores,    1 groups


--------------------------------------------------------------------------------------------------------


 INCAR:
   ISTART = 1            (Read existing wavefunction, if there)
   ISPIN = 1            (Non-Spin polarised DFT)
   LREAL = .FALSE.       (Projection operators: automatic)
   ENCUT = 450          (Cut-off energy for plane wave basis set, in eV)
   PREC = Accurate     (Precision level: Normal or Accurate, set Accurate when perform structure lattice relaxation calculation)
   LWAVE = .TRUE.        (Write WAVECAR or not)
   LCHARG = .TRUE.        (Write CHGCAR or not)
   ADDGRID = .TRUE.        (Increase grid, helps GGA convergence)
   ISMEAR = 0            (gaussian smearing method)
   SIGMA = 0.05         (please check the width of the smearing)
   NELM = 60           (Max electronic SCF steps)
   EDIFF = 1E-08        (SCF energy convergence, in eV)
   LHFCALC = .TRUE.       (Activate HF)
   AEXX = 0.25        (25% HF exact exchange, adjusted this value to reproduce experimental band gap)
   HFSCREEN = 0.2         (Switch to screened exchange, e.g. HSE06)
   ALGO = ALL         (Electronic Minimisation Algorithm, ALGO\=58)
   TIME = 0.4         (Timestep for IALGO5X)
   PRECFOCK = N           (HF FFT grid)

 POTCAR:    PAW_PBE Ge_d 03Jul2007                
 POTCAR:    PAW_PBE Ge_d 03Jul2007                
   VRHFIN =Ge: 3d4s4p                                                                               
   LEXCH  = PE                                                                                      
   EATOM  =  2596.2402 eV,  190.8183 Ry                                                             
                                                                                                    
   TITEL  = PAW_PBE Ge_d 03Jul2007                                                                  
   LULTRA =        F    use ultrasoft PP ?                                                          
   IUNSCR =        1    unscreen: 0-lin 1-nonlin 2-no                                               
   RPACOR =    2.000    partial core radius                                                         
   POMASS =   72.610; ZVAL   =   14.000    mass and valenz                                          
   RCORE  =    2.300    outmost cutoff radius                                                       
   RWIGS  =    2.300; RWIGS  =    1.217    wigner-seitz radius (au A)                               
   ENMAX  =  310.294; ENMIN  =  232.720 eV                                                          
   ICORE  =        3    local potential                                                             
   LCOR   =        T    correct aug charges                                                         
   LPAW   =        T    paw PP                                                                      
   EAUG   =  531.356                                                                                
   DEXC   =    0.000                                                                                
   RMAX   =    2.342    core radius for proj-oper                                                   
   RAUG   =    1.300    factor for augmentation sphere                                              
   RDEP   =    2.318    radius for radial grids                                                     
   RDEPT  =    1.783    core radius for aug-charge                                                  
                                                                                                    
   Atomic configuration                                                                             
    9 entries                                                                                       
     n  l   j            E        occ.                                                              
     1  0  0.50    -10959.8463   2.0000                                                             
     2  0  0.50     -1371.6056   2.0000                                                             
     2  1  1.50     -1198.4791   6.0000                                                             
     3  0  0.50      -168.4733   2.0000                                                             
     3  1  1.50      -115.6019   6.0000                                                             
     3  2  2.50       -29.3106  10.0000                                                             
     4  0  0.50       -11.7309   2.0000                                                             
     4  1  0.50        -3.8952   2.0000                                                             
     4  3  2.50        -4.0817   0.0000                                                             
   Description                                                                                      
     l       E           TYP  RCUT    TYP  RCUT                                                     
     2    -29.3105938     23  2.200                                                                 
     2    -13.6058260     23  2.200                                                                 
     0    -11.7309493     23  2.300                                                                 
     0     -7.4578696     23  2.300                                                                 
     1     -3.8952261     23  2.300                                                                 
     1      6.1178114     23  2.300                                                                 
     3     -1.3605826     23  2.300                                                                 
  local pseudopotential read in
  partial core-charges read in
  partial kinetic energy density read in
  atomic valenz-charges read in
  non local Contribution for L=            2  read in
    real space projection operators read in
  non local Contribution for L=            2  read in
    real space projection operators read in
  non local Contribution for L=            0  read in
    real space projection operators read in
  non local Contribution for L=            0  read in
    real space projection operators read in
  non local Contribution for L=            1  read in
    real space projection operators read in
  non local Contribution for L=            1  read in
    real space projection operators read in
    PAW grid and wavefunctions read in
 
   number of l-projection  operators is LMAX  =            6
   number of lm-projection operators is LMMAX =           18
 
  PAW_PBE Ge_d 03Jul2007                :
 energy of atom  1       EATOM=-2596.2402
 kinetic energy error for atom=    0.0077 (will be added to EATOM!!)
 
 
 POSCAR: cubic diamond Ge
  positions in direct lattice
  velocities in cartesian coordinates
 exchange correlation table for  LEXCH =        8
   RHO(1)=    0.500       N(1)  =     2000
   RHO(2)=  100.500       N(2)  =     4000
 


--------------------------------------------------------------------------------------------------------


 ion  position               nearest neighbor table
   1  0.875  0.875  0.875-   2 2.37   2 2.37   2 2.37   2 2.37
   2  0.125  0.125  0.125-   1 2.37   1 2.37   1 2.37   1 2.37
 
  LATTYP: Found a face centered cubic cell.
 ALAT       =     5.4686588151
  
  Lattice vectors:
  
 A1 = (   0.0000000000,   2.7343294076,   2.7343294076)
 A2 = (   2.7343294076,   0.0000000000,   2.7343294076)
 A3 = (   2.7343294076,   2.7343294076,   0.0000000000)


Analysis of symmetry for initial positions (statically):
=====================================================================
 Subroutine PRICEL returns:
 Original cell was already a primitive cell.
 

 Routine SETGRP: Setting up the symmetry group for a 
 face centered cubic supercell.


 Subroutine GETGRP returns: Found 48 space group operations
 (whereof 12 operations were pure point group operations)
 out of a pool of 48 trial point group operations.


The static configuration has the point symmetry D_3d.
 The point group associated with its full space group is O_h .


Analysis of symmetry for dynamics (positions and initial velocities):
=====================================================================
 Subroutine PRICEL returns:
 Original cell was already a primitive cell.
 

 Routine SETGRP: Setting up the symmetry group for a 
 face centered cubic supercell.


 Subroutine GETGRP returns: Found 48 space group operations
 (whereof 12 operations were pure point group operations)
 out of a pool of 48 trial point group operations.


The dynamic configuration has the point symmetry D_3d.
 The point group associated with its full space group is O_h .


 Subroutine INISYM returns: Found 48 space group operations
 (whereof 12 operations are pure point group operations),
 and found     1 'primitive' translations


----------------------------------------------------------------------------------------

                                     Primitive cell                                     

  volume of cell :      40.8867

  direct lattice vectors                    reciprocal lattice vectors
     0.000000000  2.734329408  2.734329408    -0.182860192  0.182860192  0.182860192
     2.734329408  0.000000000  2.734329408     0.182860192 -0.182860192  0.182860192
     2.734329408  2.734329408  0.000000000     0.182860192  0.182860192 -0.182860192

  length of vectors
     3.866925732  3.866925732  3.866925732     0.316723143  0.316723143  0.316723143

  position of ions in fractional coordinates (direct lattice)
     0.875000000  0.875000000  0.875000000
     0.125000000  0.125000000  0.125000000

  ion indices of the primitive-cell ions
   primitive index   ion index
                 1           1
                 2           2

----------------------------------------------------------------------------------------

 
 
 KPOINTS: K-Spacing Value to Generate K-Mesh: 0.03

Automatic generation of k-mesh.
 Grid dimensions read from file:
 generate k-points for:   11   11   11

 Generating k-lattice:

  Cartesian coordinates                     Fractional coordinates (reciprocal lattice)
    -0.016623654  0.016623654  0.016623654     0.090909091  0.000000000  0.000000000
     0.016623654 -0.016623654  0.016623654     0.000000000  0.090909091 -0.000000000
     0.016623654  0.016623654 -0.016623654    -0.000000000 -0.000000000  0.090909091

  Length of vectors
     0.028793013  0.028793013  0.028793013

  Shift w.r.t. Gamma in fractional coordinates (k-lattice)
     0.000000000  0.000000000  0.000000000

 
 Subroutine IBZKPT returns following result:
 ===========================================
 
 Found     56 irreducible k-points:
 
 Following reciprocal coordinates:
            Coordinates               Weight
  0.000000  0.000000  0.000000      1.000000
  0.090909  0.000000  0.000000      8.000000
  0.181818  0.000000  0.000000      8.000000
  0.272727  0.000000  0.000000      8.000000
  0.363636  0.000000  0.000000      8.000000
  0.454545  0.000000  0.000000      8.000000
  0.090909  0.090909  0.000000      6.000000
  0.181818  0.090909  0.000000     24.000000
  0.272727  0.090909  0.000000     24.000000
  0.363636  0.090909  0.000000     24.000000
  0.454545  0.090909  0.000000     24.000000
 -0.454545  0.090909  0.000000     24.000000
 -0.363636  0.090909  0.000000     24.000000
 -0.272727  0.090909  0.000000     24.000000
 -0.181818  0.090909  0.000000     24.000000
 -0.090909  0.090909  0.000000     12.000000
  0.181818  0.181818  0.000000      6.000000
  0.272727  0.181818  0.000000     24.000000
  0.363636  0.181818  0.000000     24.000000
  0.454545  0.181818  0.000000     24.000000
 -0.454545  0.181818  0.000000     24.000000
 -0.363636  0.181818  0.000000     24.000000
 -0.272727  0.181818  0.000000     24.000000
 -0.181818  0.181818  0.000000     12.000000
  0.272727  0.272727  0.000000      6.000000
  0.363636  0.272727  0.000000     24.000000
  0.454545  0.272727  0.000000     24.000000
 -0.454545  0.272727  0.000000     24.000000
 -0.363636  0.272727  0.000000     24.000000
 -0.272727  0.272727  0.000000     12.000000
  0.363636  0.363636  0.000000      6.000000
  0.454545  0.363636  0.000000     24.000000
 -0.454545  0.363636  0.000000     24.000000
 -0.363636  0.363636  0.000000     12.000000
  0.454545  0.454545  0.000000      6.000000
 -0.454545  0.454545  0.000000     12.000000
  0.272727  0.181818  0.090909     24.000000
  0.363636  0.181818  0.090909     48.000000
  0.454545  0.181818  0.090909     48.000000
 -0.454545  0.181818  0.090909     48.000000
  0.363636  0.272727  0.090909     24.000000
  0.454545  0.272727  0.090909     48.000000
 -0.454545  0.272727  0.090909     48.000000
 -0.363636  0.272727  0.090909     48.000000
 -0.272727  0.272727  0.090909     48.000000
 -0.181818  0.272727  0.090909     24.000000
  0.454545  0.363636  0.090909     24.000000
 -0.454545  0.363636  0.090909     48.000000
 -0.363636  0.363636  0.090909     48.000000
 -0.272727  0.363636  0.090909     24.000000
 -0.454545  0.454545  0.090909     24.000000
 -0.363636  0.454545  0.090909     24.000000
 -0.454545  0.363636  0.181818     24.000000
 -0.363636  0.363636  0.181818     48.000000
 -0.363636  0.454545  0.181818     24.000000
 -0.272727  0.454545  0.181818     24.000000
 
 Following cartesian coordinates:
            Coordinates               Weight
  0.000000  0.000000  0.000000      1.000000
 -0.094337  0.094337  0.094337      8.000000
 -0.188674  0.188674  0.188674      8.000000
 -0.283010  0.283010  0.283010      8.000000
 -0.377347  0.377347  0.377347      8.000000
 -0.471684  0.471684  0.471684      8.000000
  0.000000  0.000000  0.188674      6.000000
 -0.094337  0.094337  0.283010     24.000000
 -0.188674  0.188674  0.377347     24.000000
 -0.283010  0.283010  0.471684     24.000000
 -0.377347  0.377347  0.566021     24.000000
  0.566021 -0.566021 -0.377347     24.000000
  0.471684 -0.471684 -0.283010     24.000000
  0.377347 -0.377347 -0.188674     24.000000
  0.283010 -0.283010 -0.094337     24.000000
  0.188674 -0.188674  0.000000     12.000000
  0.000000  0.000000  0.377347      6.000000
 -0.094337  0.094337  0.471684     24.000000
 -0.188674  0.188674  0.566021     24.000000
 -0.283010  0.283010  0.660358     24.000000
  0.660358 -0.660358 -0.283010     24.000000
  0.566021 -0.566021 -0.188674     24.000000
  0.471684 -0.471684 -0.094337     24.000000
  0.377347 -0.377347  0.000000     12.000000
  0.000000  0.000000  0.566021      6.000000
 -0.094337  0.094337  0.660358     24.000000
 -0.188674  0.188674  0.754694     24.000000
  0.754694 -0.754694 -0.188674     24.000000
  0.660358 -0.660358 -0.094337     24.000000
  0.566021 -0.566021  0.000000     12.000000
  0.000000  0.000000  0.754694      6.000000
 -0.094337  0.094337  0.849031     24.000000
  0.849031 -0.849031 -0.094337     24.000000
  0.754694 -0.754694  0.000000     12.000000
  0.000000  0.000000  0.943368      6.000000
  0.943368 -0.943368  0.000000     12.000000
  0.000000  0.188674  0.377347     24.000000
 -0.094337  0.283010  0.471684     48.000000
 -0.188674  0.377347  0.566021     48.000000
  0.754694 -0.566021 -0.377347     48.000000
  0.000000  0.188674  0.566021     24.000000
 -0.094337  0.283010  0.660358     48.000000
  0.849031 -0.660358 -0.283010     48.000000
  0.754694 -0.566021 -0.188674     48.000000
  0.660358 -0.471684 -0.094337     48.000000
  0.566021 -0.377347  0.000000     24.000000
  0.000000  0.188674  0.754694     24.000000
  0.943368 -0.754694 -0.188674     48.000000
  0.849031 -0.660358 -0.094337     48.000000
  0.754694 -0.566021  0.000000     24.000000
  1.037705 -0.849031 -0.094337     24.000000
  0.943368 -0.754694 -0.000000     24.000000
  1.037705 -0.660358 -0.283010     24.000000
  0.943368 -0.566021 -0.188674     48.000000
  1.037705 -0.660358 -0.094337     24.000000
  0.943368 -0.566021  0.000000     24.000000
 
 
 Subroutine IBZKPT_HF returns following result:
 ==============================================
 
 Found   1331 k-points in 1st BZ
 the following   1331 k-points will be used (e.g. in the exchange kernel)
 Following reciprocal coordinates:   # in IRBZ
  0.000000  0.000000  0.000000    0.00075131   1 t-inv F
  0.090909  0.000000  0.000000    0.00075131   2 t-inv F
  0.181818  0.000000  0.000000    0.00075131   3 t-inv F
  0.272727  0.000000  0.000000    0.00075131   4 t-inv F
  0.363636  0.000000  0.000000    0.00075131   5 t-inv F
  0.454545  0.000000  0.000000    0.00075131   6 t-inv F
  0.090909  0.090909  0.000000    0.00075131   7 t-inv F
  0.181818  0.090909  0.000000    0.00075131   8 t-inv F
  0.272727  0.090909  0.000000    0.00075131   9 t-inv F
  0.363636  0.090909  0.000000    0.00075131  10 t-inv F
  0.454545  0.090909  0.000000    0.00075131  11 t-inv F
 -0.454545  0.090909  0.000000    0.00075131  12 t-inv F
 -0.363636  0.090909  0.000000    0.00075131  13 t-inv F
 -0.272727  0.090909  0.000000    0.00075131  14 t-inv F
 -0.181818  0.090909  0.000000    0.00075131  15 t-inv F
 -0.090909  0.090909  0.000000    0.00075131  16 t-inv F
  0.181818  0.181818  0.000000    0.00075131  17 t-inv F
  0.272727  0.181818  0.000000    0.00075131  18 t-inv F
  0.363636  0.181818  0.000000    0.00075131  19 t-inv F
  0.454545  0.181818  0.000000    0.00075131  20 t-inv F
 -0.454545  0.181818  0.000000    0.00075131  21 t-inv F
 -0.363636  0.181818  0.000000    0.00075131  22 t-inv F
 -0.272727  0.181818  0.000000    0.00075131  23 t-inv F
 -0.181818  0.181818  0.000000    0.00075131  24 t-inv F
  0.272727  0.272727  0.000000    0.00075131  25 t-inv F
  0.363636  0.272727  0.000000    0.00075131  26 t-inv F
  0.454545  0.272727  0.000000    0.00075131  27 t-inv F
 -0.454545  0.272727  0.000000    0.00075131  28 t-inv F
 -0.363636  0.272727  0.000000    0.00075131  29 t-inv F
 -0.272727  0.272727  0.000000    0.00075131  30 t-inv F
  0.363636  0.363636  0.000000    0.00075131  31 t-inv F
  0.454545  0.363636  0.000000    0.00075131  32 t-inv F
 -0.454545  0.363636  0.000000    0.00075131  33 t-inv F
 -0.363636  0.363636  0.000000    0.00075131  34 t-inv F
  0.454545  0.454545  0.000000    0.00075131  35 t-inv F
 -0.454545  0.454545  0.000000    0.00075131  36 t-inv F
  0.272727  0.181818  0.090909    0.00075131  37 t-inv F
  0.363636  0.181818  0.090909    0.00075131  38 t-inv F
  0.454545  0.181818  0.090909    0.00075131  39 t-inv F
 -0.454545  0.181818  0.090909    0.00075131  40 t-inv F
  0.363636  0.272727  0.090909    0.00075131  41 t-inv F
  0.454545  0.272727  0.090909    0.00075131  42 t-inv F
 -0.454545  0.272727  0.090909    0.00075131  43 t-inv F
 -0.363636  0.272727  0.090909    0.00075131  44 t-inv F
 -0.272727  0.272727  0.090909    0.00075131  45 t-inv F
 -0.181818  0.272727  0.090909    0.00075131  46 t-inv F
  0.454545  0.363636  0.090909    0.00075131  47 t-inv F
 -0.454545  0.363636  0.090909    0.00075131  48 t-inv F
 -0.363636  0.363636  0.090909    0.00075131  49 t-inv F
 -0.272727  0.363636  0.090909    0.00075131  50 t-inv F
 -0.454545  0.454545  0.090909    0.00075131  51 t-inv F
 -0.363636  0.454545  0.090909    0.00075131  52 t-inv F
 -0.454545  0.363636  0.181818    0.00075131  53 t-inv F
 -0.363636  0.363636  0.181818    0.00075131  54 t-inv F
 -0.363636  0.454545  0.181818    0.00075131  55 t-inv F
 -0.272727  0.454545  0.181818    0.00075131  56 t-inv F
 -0.090909 -0.000000 -0.000000    0.00075131   2 t-inv F
  0.000000  0.090909  0.000000    0.00075131   2 t-inv F
 -0.000000 -0.090909 -0.000000    0.00075131   2 t-inv F
  0.000000  0.000000  0.090909    0.00075131   2 t-inv F
 -0.000000 -0.000000 -0.090909    0.00075131   2 t-inv F
  0.090909  0.090909  0.090909    0.00075131   2 t-inv F
 -0.090909 -0.090909 -0.090909    0.00075131   2 t-inv F
 -0.181818 -0.000000 -0.000000    0.00075131   3 t-inv F
  0.000000  0.181818  0.000000    0.00075131   3 t-inv F
 -0.000000 -0.181818 -0.000000    0.00075131   3 t-inv F
  0.000000  0.000000  0.181818    0.00075131   3 t-inv F
 -0.000000 -0.000000 -0.181818    0.00075131   3 t-inv F
  0.181818  0.181818  0.181818    0.00075131   3 t-inv F
 -0.181818 -0.181818 -0.181818    0.00075131   3 t-inv F
 -0.272727 -0.000000 -0.000000    0.00075131   4 t-inv F
  0.000000  0.272727  0.000000    0.00075131   4 t-inv F
 -0.000000 -0.272727 -0.000000    0.00075131   4 t-inv F
  0.000000  0.000000  0.272727    0.00075131   4 t-inv F
 -0.000000 -0.000000 -0.272727    0.00075131   4 t-inv F
  0.272727  0.272727  0.272727    0.00075131   4 t-inv F
 -0.272727 -0.272727 -0.272727    0.00075131   4 t-inv F
 -0.363636 -0.000000 -0.000000    0.00075131   5 t-inv F
  0.000000  0.363636  0.000000    0.00075131   5 t-inv F
 -0.000000 -0.363636 -0.000000    0.00075131   5 t-inv F
  0.000000  0.000000  0.363636    0.00075131   5 t-inv F
 -0.000000 -0.000000 -0.363636    0.00075131   5 t-inv F
  0.363636  0.363636  0.363636    0.00075131   5 t-inv F
 -0.363636 -0.363636 -0.363636    0.00075131   5 t-inv F
 -0.454545 -0.000000 -0.000000    0.00075131   6 t-inv F
  0.000000  0.454545  0.000000    0.00075131   6 t-inv F
 -0.000000 -0.454545 -0.000000    0.00075131   6 t-inv F
  0.000000  0.000000  0.454545    0.00075131   6 t-inv F
 -0.000000 -0.000000 -0.454545    0.00075131   6 t-inv F
  0.454545  0.454545  0.454545    0.00075131   6 t-inv F
 -0.454545 -0.454545 -0.454545    0.00075131   6 t-inv F
 -0.090909 -0.090909 -0.000000    0.00075131   7 t-inv F
  0.000000  0.090909  0.090909    0.00075131   7 t-inv F
 -0.000000 -0.090909 -0.090909    0.00075131   7 t-inv F
  0.090909  0.000000  0.090909    0.00075131   7 t-inv F
 -0.090909 -0.000000 -0.090909    0.00075131   7 t-inv F
 -0.181818 -0.090909 -0.000000    0.00075131   8 t-inv F
  0.000000  0.181818  0.090909    0.00075131   8 t-inv F
 -0.000000 -0.181818 -0.090909    0.00075131   8 t-inv F
  0.090909  0.000000  0.181818    0.00075131   8 t-inv F
 -0.090909 -0.000000 -0.181818    0.00075131   8 t-inv F
 -0.181818 -0.000000 -0.090909    0.00075131   8 t-inv F
  0.181818  0.000000  0.090909    0.00075131   8 t-inv F
 -0.090909 -0.181818 -0.000000    0.00075131   8 t-inv F
  0.090909  0.181818  0.000000    0.00075131   8 t-inv F
 -0.000000 -0.090909 -0.181818    0.00075131   8 t-inv F
  0.000000  0.090909  0.181818    0.00075131   8 t-inv F
  0.090909  0.090909 -0.090909    0.00075131   8 t-inv F
 -0.090909 -0.090909  0.090909    0.00075131   8 t-inv F
  0.181818  0.090909  0.181818    0.00075131   8 t-inv F
 -0.181818 -0.090909 -0.181818    0.00075131   8 t-inv F
  0.090909 -0.090909 -0.090909    0.00075131   8 t-inv F
 -0.090909  0.090909  0.090909    0.00075131   8 t-inv F
  0.181818  0.181818  0.090909    0.00075131   8 t-inv F
 -0.181818 -0.181818 -0.090909    0.00075131   8 t-inv F
 -0.090909  0.090909 -0.090909    0.00075131   8 t-inv F
  0.090909 -0.090909  0.090909    0.00075131   8 t-inv F
  0.090909  0.181818  0.181818    0.00075131   8 t-inv F
 -0.090909 -0.181818 -0.181818    0.00075131   8 t-inv F
 -0.272727 -0.090909 -0.000000    0.00075131   9 t-inv F
  0.000000  0.272727  0.090909    0.00075131   9 t-inv F
 -0.000000 -0.272727 -0.090909    0.00075131   9 t-inv F
  0.090909  0.000000  0.272727    0.00075131   9 t-inv F
 -0.090909 -0.000000 -0.272727    0.00075131   9 t-inv F
 -0.272727 -0.000000 -0.090909    0.00075131   9 t-inv F
  0.272727  0.000000  0.090909    0.00075131   9 t-inv F
 -0.090909 -0.272727 -0.000000    0.00075131   9 t-inv F
  0.090909  0.272727  0.000000    0.00075131   9 t-inv F
 -0.000000 -0.090909 -0.272727    0.00075131   9 t-inv F
  0.000000  0.090909  0.272727    0.00075131   9 t-inv F
  0.090909  0.090909 -0.181818    0.00075131   9 t-inv F
 -0.090909 -0.090909  0.181818    0.00075131   9 t-inv F
  0.272727  0.181818  0.272727    0.00075131   9 t-inv F
 -0.272727 -0.181818 -0.272727    0.00075131   9 t-inv F
  0.181818 -0.090909 -0.090909    0.00075131   9 t-inv F
 -0.181818  0.090909  0.090909    0.00075131   9 t-inv F
  0.272727  0.272727  0.181818    0.00075131   9 t-inv F
 -0.272727 -0.272727 -0.181818    0.00075131   9 t-inv F
 -0.090909  0.181818 -0.090909    0.00075131   9 t-inv F
  0.090909 -0.181818  0.090909    0.00075131   9 t-inv F
  0.181818  0.272727  0.272727    0.00075131   9 t-inv F
 -0.181818 -0.272727 -0.272727    0.00075131   9 t-inv F
 -0.363636 -0.090909 -0.000000    0.00075131  10 t-inv F
  0.000000  0.363636  0.090909    0.00075131  10 t-inv F
 -0.000000 -0.363636 -0.090909    0.00075131  10 t-inv F
  0.090909  0.000000  0.363636    0.00075131  10 t-inv F
 -0.090909 -0.000000 -0.363636    0.00075131  10 t-inv F
 -0.363636 -0.000000 -0.090909    0.00075131  10 t-inv F
  0.363636  0.000000  0.090909    0.00075131  10 t-inv F
 -0.090909 -0.363636 -0.000000    0.00075131  10 t-inv F
  0.090909  0.363636  0.000000    0.00075131  10 t-inv F
 -0.000000 -0.090909 -0.363636    0.00075131  10 t-inv F
  0.000000  0.090909  0.363636    0.00075131  10 t-inv F
  0.090909  0.090909 -0.272727    0.00075131  10 t-inv F
 -0.090909 -0.090909  0.272727    0.00075131  10 t-inv F
  0.363636  0.272727  0.363636    0.00075131  10 t-inv F
 -0.363636 -0.272727 -0.363636    0.00075131  10 t-inv F
  0.272727 -0.090909 -0.090909    0.00075131  10 t-inv F
 -0.272727  0.090909  0.090909    0.00075131  10 t-inv F
  0.363636  0.363636  0.272727    0.00075131  10 t-inv F
 -0.363636 -0.363636 -0.272727    0.00075131  10 t-inv F
 -0.090909  0.272727 -0.090909    0.00075131  10 t-inv F
  0.090909 -0.272727  0.090909    0.00075131  10 t-inv F
  0.272727  0.363636  0.363636    0.00075131  10 t-inv F
 -0.272727 -0.363636 -0.363636    0.00075131  10 t-inv F
 -0.454545 -0.090909 -0.000000    0.00075131  11 t-inv F
  0.000000  0.454545  0.090909    0.00075131  11 t-inv F
 -0.000000 -0.454545 -0.090909    0.00075131  11 t-inv F
  0.090909  0.000000  0.454545    0.00075131  11 t-inv F
 -0.090909 -0.000000 -0.454545    0.00075131  11 t-inv F
 -0.454545 -0.000000 -0.090909    0.00075131  11 t-inv F
  0.454545  0.000000  0.090909    0.00075131  11 t-inv F
 -0.090909 -0.454545 -0.000000    0.00075131  11 t-inv F
  0.090909  0.454545  0.000000    0.00075131  11 t-inv F
 -0.000000 -0.090909 -0.454545    0.00075131  11 t-inv F
  0.000000  0.090909  0.454545    0.00075131  11 t-inv F
  0.090909  0.090909 -0.363636    0.00075131  11 t-inv F
 -0.090909 -0.090909  0.363636    0.00075131  11 t-inv F
  0.454545  0.363636  0.454545    0.00075131  11 t-inv F
 -0.454545 -0.363636 -0.454545    0.00075131  11 t-inv F
  0.363636 -0.090909 -0.090909    0.00075131  11 t-inv F
 -0.363636  0.090909  0.090909    0.00075131  11 t-inv F
  0.454545  0.454545  0.363636    0.00075131  11 t-inv F
 -0.454545 -0.454545 -0.363636    0.00075131  11 t-inv F
 -0.090909  0.363636 -0.090909    0.00075131  11 t-inv F
  0.090909 -0.363636  0.090909    0.00075131  11 t-inv F
  0.363636  0.454545  0.454545    0.00075131  11 t-inv F
 -0.363636 -0.454545 -0.454545    0.00075131  11 t-inv F
  0.454545 -0.090909 -0.000000    0.00075131  12 t-inv F
  0.000000 -0.454545  0.090909    0.00075131  12 t-inv F
 -0.000000  0.454545 -0.090909    0.00075131  12 t-inv F
  0.090909  0.000000 -0.454545    0.00075131  12 t-inv F
 -0.090909 -0.000000  0.454545    0.00075131  12 t-inv F
  0.454545 -0.000000 -0.090909    0.00075131  12 t-inv F
 -0.454545  0.000000  0.090909    0.00075131  12 t-inv F
 -0.090909  0.454545 -0.000000    0.00075131  12 t-inv F
  0.090909 -0.454545  0.000000    0.00075131  12 t-inv F
 -0.000000 -0.090909  0.454545    0.00075131  12 t-inv F
  0.000000  0.090909 -0.454545    0.00075131  12 t-inv F
  0.090909  0.090909  0.545455    0.00075131  12 t-inv F
 -0.090909 -0.090909 -0.545455    0.00075131  12 t-inv F
 -0.454545 -0.545455 -0.454545    0.00075131  12 t-inv F
  0.454545  0.545455  0.454545    0.00075131  12 t-inv F
 -0.545455 -0.090909 -0.090909    0.00075131  12 t-inv F
  0.545455  0.090909  0.090909    0.00075131  12 t-inv F
 -0.454545 -0.454545 -0.545455    0.00075131  12 t-inv F
  0.454545  0.454545  0.545455    0.00075131  12 t-inv F
 -0.090909 -0.545455 -0.090909    0.00075131  12 t-inv F
  0.090909  0.545455  0.090909    0.00075131  12 t-inv F
 -0.545455 -0.454545 -0.454545    0.00075131  12 t-inv F
  0.545455  0.454545  0.454545    0.00075131  12 t-inv F
  0.363636 -0.090909 -0.000000    0.00075131  13 t-inv F
  0.000000 -0.363636  0.090909    0.00075131  13 t-inv F
 -0.000000  0.363636 -0.090909    0.00075131  13 t-inv F
  0.090909  0.000000 -0.363636    0.00075131  13 t-inv F
 -0.090909 -0.000000  0.363636    0.00075131  13 t-inv F
  0.363636 -0.000000 -0.090909    0.00075131  13 t-inv F
 -0.363636  0.000000  0.090909    0.00075131  13 t-inv F
 -0.090909  0.363636 -0.000000    0.00075131  13 t-inv F
  0.090909 -0.363636  0.000000    0.00075131  13 t-inv F
 -0.000000 -0.090909  0.363636    0.00075131  13 t-inv F
  0.000000  0.090909 -0.363636    0.00075131  13 t-inv F
  0.090909  0.090909  0.454545    0.00075131  13 t-inv F
 -0.090909 -0.090909 -0.454545    0.00075131  13 t-inv F
 -0.363636 -0.454545 -0.363636    0.00075131  13 t-inv F
  0.363636  0.454545  0.363636    0.00075131  13 t-inv F
 -0.454545 -0.090909 -0.090909    0.00075131  13 t-inv F
  0.454545  0.090909  0.090909    0.00075131  13 t-inv F
 -0.363636 -0.363636 -0.454545    0.00075131  13 t-inv F
  0.363636  0.363636  0.454545    0.00075131  13 t-inv F
 -0.090909 -0.454545 -0.090909    0.00075131  13 t-inv F
  0.090909  0.454545  0.090909    0.00075131  13 t-inv F
 -0.454545 -0.363636 -0.363636    0.00075131  13 t-inv F
  0.454545  0.363636  0.363636    0.00075131  13 t-inv F
  0.272727 -0.090909 -0.000000    0.00075131  14 t-inv F
  0.000000 -0.272727  0.090909    0.00075131  14 t-inv F
 -0.000000  0.272727 -0.090909    0.00075131  14 t-inv F
  0.090909  0.000000 -0.272727    0.00075131  14 t-inv F
 -0.090909 -0.000000  0.272727    0.00075131  14 t-inv F
  0.272727 -0.000000 -0.090909    0.00075131  14 t-inv F
 -0.272727  0.000000  0.090909    0.00075131  14 t-inv F
 -0.090909  0.272727 -0.000000    0.00075131  14 t-inv F
  0.090909 -0.272727  0.000000    0.00075131  14 t-inv F
 -0.000000 -0.090909  0.272727    0.00075131  14 t-inv F
  0.000000  0.090909 -0.272727    0.00075131  14 t-inv F
  0.090909  0.090909  0.363636    0.00075131  14 t-inv F
 -0.090909 -0.090909 -0.363636    0.00075131  14 t-inv F
 -0.272727 -0.363636 -0.272727    0.00075131  14 t-inv F
  0.272727  0.363636  0.272727    0.00075131  14 t-inv F
 -0.363636 -0.090909 -0.090909    0.00075131  14 t-inv F
  0.363636  0.090909  0.090909    0.00075131  14 t-inv F
 -0.272727 -0.272727 -0.363636    0.00075131  14 t-inv F
  0.272727  0.272727  0.363636    0.00075131  14 t-inv F
 -0.090909 -0.363636 -0.090909    0.00075131  14 t-inv F
  0.090909  0.363636  0.090909    0.00075131  14 t-inv F
 -0.363636 -0.272727 -0.272727    0.00075131  14 t-inv F
  0.363636  0.272727  0.272727    0.00075131  14 t-inv F
  0.181818 -0.090909 -0.000000    0.00075131  15 t-inv F
  0.000000 -0.181818  0.090909    0.00075131  15 t-inv F
 -0.000000  0.181818 -0.090909    0.00075131  15 t-inv F
  0.090909  0.000000 -0.181818    0.00075131  15 t-inv F
 -0.090909 -0.000000  0.181818    0.00075131  15 t-inv F
  0.181818 -0.000000 -0.090909    0.00075131  15 t-inv F
 -0.181818  0.000000  0.090909    0.00075131  15 t-inv F
 -0.090909  0.181818 -0.000000    0.00075131  15 t-inv F
  0.090909 -0.181818  0.000000    0.00075131  15 t-inv F
 -0.000000 -0.090909  0.181818    0.00075131  15 t-inv F
  0.000000  0.090909 -0.181818    0.00075131  15 t-inv F
  0.090909  0.090909  0.272727    0.00075131  15 t-inv F
 -0.090909 -0.090909 -0.272727    0.00075131  15 t-inv F
 -0.181818 -0.272727 -0.181818    0.00075131  15 t-inv F
  0.181818  0.272727  0.181818    0.00075131  15 t-inv F
 -0.272727 -0.090909 -0.090909    0.00075131  15 t-inv F
  0.272727  0.090909  0.090909    0.00075131  15 t-inv F
 -0.181818 -0.181818 -0.272727    0.00075131  15 t-inv F
  0.181818  0.181818  0.272727    0.00075131  15 t-inv F
 -0.090909 -0.272727 -0.090909    0.00075131  15 t-inv F
  0.090909  0.272727  0.090909    0.00075131  15 t-inv F
 -0.272727 -0.181818 -0.181818    0.00075131  15 t-inv F
  0.272727  0.181818  0.181818    0.00075131  15 t-inv F
  0.090909 -0.090909 -0.000000    0.00075131  16 t-inv F
  0.000000 -0.090909  0.090909    0.00075131  16 t-inv F
 -0.000000  0.090909 -0.090909    0.00075131  16 t-inv F
  0.090909  0.000000 -0.090909    0.00075131  16 t-inv F
 -0.090909 -0.000000  0.090909    0.00075131  16 t-inv F
  0.090909  0.090909  0.181818    0.00075131  16 t-inv F
 -0.090909 -0.090909 -0.181818    0.00075131  16 t-inv F
 -0.090909 -0.181818 -0.090909    0.00075131  16 t-inv F
  0.090909  0.181818  0.090909    0.00075131  16 t-inv F
 -0.181818 -0.090909 -0.090909    0.00075131  16 t-inv F
  0.181818  0.090909  0.090909    0.00075131  16 t-inv F
 -0.181818 -0.181818 -0.000000    0.00075131  17 t-inv F
  0.000000  0.181818  0.181818    0.00075131  17 t-inv F
 -0.000000 -0.181818 -0.181818    0.00075131  17 t-inv F
  0.181818  0.000000  0.181818    0.00075131  17 t-inv F
 -0.181818 -0.000000 -0.181818    0.00075131  17 t-inv F
 -0.272727 -0.181818 -0.000000    0.00075131  18 t-inv F
  0.000000  0.272727  0.181818    0.00075131  18 t-inv F
 -0.000000 -0.272727 -0.181818    0.00075131  18 t-inv F
  0.181818  0.000000  0.272727    0.00075131  18 t-inv F
 -0.181818 -0.000000 -0.272727    0.00075131  18 t-inv F
 -0.272727 -0.000000 -0.181818    0.00075131  18 t-inv F
  0.272727  0.000000  0.181818    0.00075131  18 t-inv F
 -0.181818 -0.272727 -0.000000    0.00075131  18 t-inv F
  0.181818  0.272727  0.000000    0.00075131  18 t-inv F
 -0.000000 -0.181818 -0.272727    0.00075131  18 t-inv F
  0.000000  0.181818  0.272727    0.00075131  18 t-inv F
  0.181818  0.181818 -0.090909    0.00075131  18 t-inv F
 -0.181818 -0.181818  0.090909    0.00075131  18 t-inv F
  0.272727  0.090909  0.272727    0.00075131  18 t-inv F
 -0.272727 -0.090909 -0.272727    0.00075131  18 t-inv F
  0.090909 -0.181818 -0.181818    0.00075131  18 t-inv F
 -0.090909  0.181818  0.181818    0.00075131  18 t-inv F
  0.272727  0.272727  0.090909    0.00075131  18 t-inv F
 -0.272727 -0.272727 -0.090909    0.00075131  18 t-inv F
 -0.181818  0.090909 -0.181818    0.00075131  18 t-inv F
  0.181818 -0.090909  0.181818    0.00075131  18 t-inv F
  0.090909  0.272727  0.272727    0.00075131  18 t-inv F
 -0.090909 -0.272727 -0.272727    0.00075131  18 t-inv F
 -0.363636 -0.181818 -0.000000    0.00075131  19 t-inv F
  0.000000  0.363636  0.181818    0.00075131  19 t-inv F
 -0.000000 -0.363636 -0.181818    0.00075131  19 t-inv F
  0.181818  0.000000  0.363636    0.00075131  19 t-inv F
 -0.181818 -0.000000 -0.363636    0.00075131  19 t-inv F
 -0.363636 -0.000000 -0.181818    0.00075131  19 t-inv F
  0.363636  0.000000  0.181818    0.00075131  19 t-inv F
 -0.181818 -0.363636 -0.000000    0.00075131  19 t-inv F
  0.181818  0.363636  0.000000    0.00075131  19 t-inv F
 -0.000000 -0.181818 -0.363636    0.00075131  19 t-inv F
  0.000000  0.181818  0.363636    0.00075131  19 t-inv F
  0.181818  0.181818 -0.181818    0.00075131  19 t-inv F
 -0.181818 -0.181818  0.181818    0.00075131  19 t-inv F
  0.363636  0.181818  0.363636    0.00075131  19 t-inv F
 -0.363636 -0.181818 -0.363636    0.00075131  19 t-inv F
  0.181818 -0.181818 -0.181818    0.00075131  19 t-inv F
 -0.181818  0.181818  0.181818    0.00075131  19 t-inv F
  0.363636  0.363636  0.181818    0.00075131  19 t-inv F
 -0.363636 -0.363636 -0.181818    0.00075131  19 t-inv F
 -0.181818  0.181818 -0.181818    0.00075131  19 t-inv F
  0.181818 -0.181818  0.181818    0.00075131  19 t-inv F
  0.181818  0.363636  0.363636    0.00075131  19 t-inv F
 -0.181818 -0.363636 -0.363636    0.00075131  19 t-inv F
 -0.454545 -0.181818 -0.000000    0.00075131  20 t-inv F
  0.000000  0.454545  0.181818    0.00075131  20 t-inv F
 -0.000000 -0.454545 -0.181818    0.00075131  20 t-inv F
  0.181818  0.000000  0.454545    0.00075131  20 t-inv F
 -0.181818 -0.000000 -0.454545    0.00075131  20 t-inv F
 -0.454545 -0.000000 -0.181818    0.00075131  20 t-inv F
  0.454545  0.000000  0.181818    0.00075131  20 t-inv F
 -0.181818 -0.454545 -0.000000    0.00075131  20 t-inv F
  0.181818  0.454545  0.000000    0.00075131  20 t-inv F
 -0.000000 -0.181818 -0.454545    0.00075131  20 t-inv F
  0.000000  0.181818  0.454545    0.00075131  20 t-inv F
  0.181818  0.181818 -0.272727    0.00075131  20 t-inv F
 -0.181818 -0.181818  0.272727    0.00075131  20 t-inv F
  0.454545  0.272727  0.454545    0.00075131  20 t-inv F
 -0.454545 -0.272727 -0.454545    0.00075131  20 t-inv F
  0.272727 -0.181818 -0.181818    0.00075131  20 t-inv F
 -0.272727  0.181818  0.181818    0.00075131  20 t-inv F
  0.454545  0.454545  0.272727    0.00075131  20 t-inv F
 -0.454545 -0.454545 -0.272727    0.00075131  20 t-inv F
 -0.181818  0.272727 -0.181818    0.00075131  20 t-inv F
  0.181818 -0.272727  0.181818    0.00075131  20 t-inv F
  0.272727  0.454545  0.454545    0.00075131  20 t-inv F
 -0.272727 -0.454545 -0.454545    0.00075131  20 t-inv F
  0.454545 -0.181818 -0.000000    0.00075131  21 t-inv F
  0.000000 -0.454545  0.181818    0.00075131  21 t-inv F
 -0.000000  0.454545 -0.181818    0.00075131  21 t-inv F
  0.181818  0.000000 -0.454545    0.00075131  21 t-inv F
 -0.181818 -0.000000  0.454545    0.00075131  21 t-inv F
  0.454545 -0.000000 -0.181818    0.00075131  21 t-inv F
 -0.454545  0.000000  0.181818    0.00075131  21 t-inv F
 -0.181818  0.454545 -0.000000    0.00075131  21 t-inv F
  0.181818 -0.454545  0.000000    0.00075131  21 t-inv F
 -0.000000 -0.181818  0.454545    0.00075131  21 t-inv F
  0.000000  0.181818 -0.454545    0.00075131  21 t-inv F
  0.181818  0.181818  0.636364    0.00075131  21 t-inv F
 -0.181818 -0.181818 -0.636364    0.00075131  21 t-inv F
 -0.454545 -0.636364 -0.454545    0.00075131  21 t-inv F
  0.454545  0.636364  0.454545    0.00075131  21 t-inv F
 -0.636364 -0.181818 -0.181818    0.00075131  21 t-inv F
  0.636364  0.181818  0.181818    0.00075131  21 t-inv F
 -0.454545 -0.454545 -0.636364    0.00075131  21 t-inv F
  0.454545  0.454545  0.636364    0.00075131  21 t-inv F
 -0.181818 -0.636364 -0.181818    0.00075131  21 t-inv F
  0.181818  0.636364  0.181818    0.00075131  21 t-inv F
 -0.636364 -0.454545 -0.454545    0.00075131  21 t-inv F
  0.636364  0.454545  0.454545    0.00075131  21 t-inv F
  0.363636 -0.181818 -0.000000    0.00075131  22 t-inv F
  0.000000 -0.363636  0.181818    0.00075131  22 t-inv F
 -0.000000  0.363636 -0.181818    0.00075131  22 t-inv F
  0.181818  0.000000 -0.363636    0.00075131  22 t-inv F
 -0.181818 -0.000000  0.363636    0.00075131  22 t-inv F
  0.363636 -0.000000 -0.181818    0.00075131  22 t-inv F
 -0.363636  0.000000  0.181818    0.00075131  22 t-inv F
 -0.181818  0.363636 -0.000000    0.00075131  22 t-inv F
  0.181818 -0.363636  0.000000    0.00075131  22 t-inv F
 -0.000000 -0.181818  0.363636    0.00075131  22 t-inv F
  0.000000  0.181818 -0.363636    0.00075131  22 t-inv F
  0.181818  0.181818  0.545455    0.00075131  22 t-inv F
 -0.181818 -0.181818 -0.545455    0.00075131  22 t-inv F
 -0.363636 -0.545455 -0.363636    0.00075131  22 t-inv F
  0.363636  0.545455  0.363636    0.00075131  22 t-inv F
 -0.545455 -0.181818 -0.181818    0.00075131  22 t-inv F
  0.545455  0.181818  0.181818    0.00075131  22 t-inv F
 -0.363636 -0.363636 -0.545455    0.00075131  22 t-inv F
  0.363636  0.363636  0.545455    0.00075131  22 t-inv F
 -0.181818 -0.545455 -0.181818    0.00075131  22 t-inv F
  0.181818  0.545455  0.181818    0.00075131  22 t-inv F
 -0.545455 -0.363636 -0.363636    0.00075131  22 t-inv F
  0.545455  0.363636  0.363636    0.00075131  22 t-inv F
  0.272727 -0.181818 -0.000000    0.00075131  23 t-inv F
  0.000000 -0.272727  0.181818    0.00075131  23 t-inv F
 -0.000000  0.272727 -0.181818    0.00075131  23 t-inv F
  0.181818  0.000000 -0.272727    0.00075131  23 t-inv F
 -0.181818 -0.000000  0.272727    0.00075131  23 t-inv F
  0.272727 -0.000000 -0.181818    0.00075131  23 t-inv F
 -0.272727  0.000000  0.181818    0.00075131  23 t-inv F
 -0.181818  0.272727 -0.000000    0.00075131  23 t-inv F
  0.181818 -0.272727  0.000000    0.00075131  23 t-inv F
 -0.000000 -0.181818  0.272727    0.00075131  23 t-inv F
  0.000000  0.181818 -0.272727    0.00075131  23 t-inv F
  0.181818  0.181818  0.454545    0.00075131  23 t-inv F
 -0.181818 -0.181818 -0.454545    0.00075131  23 t-inv F
 -0.272727 -0.454545 -0.272727    0.00075131  23 t-inv F
  0.272727  0.454545  0.272727    0.00075131  23 t-inv F
 -0.454545 -0.181818 -0.181818    0.00075131  23 t-inv F
  0.454545  0.181818  0.181818    0.00075131  23 t-inv F
 -0.272727 -0.272727 -0.454545    0.00075131  23 t-inv F
  0.272727  0.272727  0.454545    0.00075131  23 t-inv F
 -0.181818 -0.454545 -0.181818    0.00075131  23 t-inv F
  0.181818  0.454545  0.181818    0.00075131  23 t-inv F
 -0.454545 -0.272727 -0.272727    0.00075131  23 t-inv F
  0.454545  0.272727  0.272727    0.00075131  23 t-inv F
  0.181818 -0.181818 -0.000000    0.00075131  24 t-inv F
  0.000000 -0.181818  0.181818    0.00075131  24 t-inv F
 -0.000000  0.181818 -0.181818    0.00075131  24 t-inv F
  0.181818  0.000000 -0.181818    0.00075131  24 t-inv F
 -0.181818 -0.000000  0.181818    0.00075131  24 t-inv F
  0.181818  0.181818  0.363636    0.00075131  24 t-inv F
 -0.181818 -0.181818 -0.363636    0.00075131  24 t-inv F
 -0.181818 -0.363636 -0.181818    0.00075131  24 t-inv F
  0.181818  0.363636  0.181818    0.00075131  24 t-inv F
 -0.363636 -0.181818 -0.181818    0.00075131  24 t-inv F
  0.363636  0.181818  0.181818    0.00075131  24 t-inv F
 -0.272727 -0.272727 -0.000000    0.00075131  25 t-inv F
  0.000000  0.272727  0.272727    0.00075131  25 t-inv F
 -0.000000 -0.272727 -0.272727    0.00075131  25 t-inv F
  0.272727  0.000000  0.272727    0.00075131  25 t-inv F
 -0.272727 -0.000000 -0.272727    0.00075131  25 t-inv F
 -0.363636 -0.272727 -0.000000    0.00075131  26 t-inv F
  0.000000  0.363636  0.272727    0.00075131  26 t-inv F
 -0.000000 -0.363636 -0.272727    0.00075131  26 t-inv F
  0.272727  0.000000  0.363636    0.00075131  26 t-inv F
 -0.272727 -0.000000 -0.363636    0.00075131  26 t-inv F
 -0.363636 -0.000000 -0.272727    0.00075131  26 t-inv F
  0.363636  0.000000  0.272727    0.00075131  26 t-inv F
 -0.272727 -0.363636 -0.000000    0.00075131  26 t-inv F
  0.272727  0.363636  0.000000    0.00075131  26 t-inv F
 -0.000000 -0.272727 -0.363636    0.00075131  26 t-inv F
  0.000000  0.272727  0.363636    0.00075131  26 t-inv F
  0.272727  0.272727 -0.090909    0.00075131  26 t-inv F
 -0.272727 -0.272727  0.090909    0.00075131  26 t-inv F
  0.363636  0.090909  0.363636    0.00075131  26 t-inv F
 -0.363636 -0.090909 -0.363636    0.00075131  26 t-inv F
  0.090909 -0.272727 -0.272727    0.00075131  26 t-inv F
 -0.090909  0.272727  0.272727    0.00075131  26 t-inv F
  0.363636  0.363636  0.090909    0.00075131  26 t-inv F
 -0.363636 -0.363636 -0.090909    0.00075131  26 t-inv F
 -0.272727  0.090909 -0.272727    0.00075131  26 t-inv F
  0.272727 -0.090909  0.272727    0.00075131  26 t-inv F
  0.090909  0.363636  0.363636    0.00075131  26 t-inv F
 -0.090909 -0.363636 -0.363636    0.00075131  26 t-inv F
 -0.454545 -0.272727 -0.000000    0.00075131  27 t-inv F
  0.000000  0.454545  0.272727    0.00075131  27 t-inv F
 -0.000000 -0.454545 -0.272727    0.00075131  27 t-inv F
  0.272727  0.000000  0.454545    0.00075131  27 t-inv F
 -0.272727 -0.000000 -0.454545    0.00075131  27 t-inv F
 -0.454545 -0.000000 -0.272727    0.00075131  27 t-inv F
  0.454545  0.000000  0.272727    0.00075131  27 t-inv F
 -0.272727 -0.454545 -0.000000    0.00075131  27 t-inv F
  0.272727  0.454545  0.000000    0.00075131  27 t-inv F
 -0.000000 -0.272727 -0.454545    0.00075131  27 t-inv F
  0.000000  0.272727  0.454545    0.00075131  27 t-inv F
  0.272727  0.272727 -0.181818    0.00075131  27 t-inv F
 -0.272727 -0.272727  0.181818    0.00075131  27 t-inv F
  0.454545  0.181818  0.454545    0.00075131  27 t-inv F
 -0.454545 -0.181818 -0.454545    0.00075131  27 t-inv F
  0.181818 -0.272727 -0.272727    0.00075131  27 t-inv F
 -0.181818  0.272727  0.272727    0.00075131  27 t-inv F
  0.454545  0.454545  0.181818    0.00075131  27 t-inv F
 -0.454545 -0.454545 -0.181818    0.00075131  27 t-inv F
 -0.272727  0.181818 -0.272727    0.00075131  27 t-inv F
  0.272727 -0.181818  0.272727    0.00075131  27 t-inv F
  0.181818  0.454545  0.454545    0.00075131  27 t-inv F
 -0.181818 -0.454545 -0.454545    0.00075131  27 t-inv F
  0.454545 -0.272727 -0.000000    0.00075131  28 t-inv F
  0.000000 -0.454545  0.272727    0.00075131  28 t-inv F
 -0.000000  0.454545 -0.272727    0.00075131  28 t-inv F
  0.272727  0.000000 -0.454545    0.00075131  28 t-inv F
 -0.272727 -0.000000  0.454545    0.00075131  28 t-inv F
  0.454545 -0.000000 -0.272727    0.00075131  28 t-inv F
 -0.454545  0.000000  0.272727    0.00075131  28 t-inv F
 -0.272727  0.454545 -0.000000    0.00075131  28 t-inv F
  0.272727 -0.454545  0.000000    0.00075131  28 t-inv F
 -0.000000 -0.272727  0.454545    0.00075131  28 t-inv F
  0.000000  0.272727 -0.454545    0.00075131  28 t-inv F
  0.272727  0.272727  0.727273    0.00075131  28 t-inv F
 -0.272727 -0.272727 -0.727273    0.00075131  28 t-inv F
 -0.454545 -0.727273 -0.454545    0.00075131  28 t-inv F
  0.454545  0.727273  0.454545    0.00075131  28 t-inv F
 -0.727273 -0.272727 -0.272727    0.00075131  28 t-inv F
  0.727273  0.272727  0.272727    0.00075131  28 t-inv F
 -0.454545 -0.454545 -0.727273    0.00075131  28 t-inv F
  0.454545  0.454545  0.727273    0.00075131  28 t-inv F
 -0.272727 -0.727273 -0.272727    0.00075131  28 t-inv F
  0.272727  0.727273  0.272727    0.00075131  28 t-inv F
 -0.727273 -0.454545 -0.454545    0.00075131  28 t-inv F
  0.727273  0.454545  0.454545    0.00075131  28 t-inv F
  0.363636 -0.272727 -0.000000    0.00075131  29 t-inv F
  0.000000 -0.363636  0.272727    0.00075131  29 t-inv F
 -0.000000  0.363636 -0.272727    0.00075131  29 t-inv F
  0.272727  0.000000 -0.363636    0.00075131  29 t-inv F
 -0.272727 -0.000000  0.363636    0.00075131  29 t-inv F
  0.363636 -0.000000 -0.272727    0.00075131  29 t-inv F
 -0.363636  0.000000  0.272727    0.00075131  29 t-inv F
 -0.272727  0.363636 -0.000000    0.00075131  29 t-inv F
  0.272727 -0.363636  0.000000    0.00075131  29 t-inv F
 -0.000000 -0.272727  0.363636    0.00075131  29 t-inv F
  0.000000  0.272727 -0.363636    0.00075131  29 t-inv F
  0.272727  0.272727  0.636364    0.00075131  29 t-inv F
 -0.272727 -0.272727 -0.636364    0.00075131  29 t-inv F
 -0.363636 -0.636364 -0.363636    0.00075131  29 t-inv F
  0.363636  0.636364  0.363636    0.00075131  29 t-inv F
 -0.636364 -0.272727 -0.272727    0.00075131  29 t-inv F
  0.636364  0.272727  0.272727    0.00075131  29 t-inv F
 -0.363636 -0.363636 -0.636364    0.00075131  29 t-inv F
  0.363636  0.363636  0.636364    0.00075131  29 t-inv F
 -0.272727 -0.636364 -0.272727    0.00075131  29 t-inv F
  0.272727  0.636364  0.272727    0.00075131  29 t-inv F
 -0.636364 -0.363636 -0.363636    0.00075131  29 t-inv F
  0.636364  0.363636  0.363636    0.00075131  29 t-inv F
  0.272727 -0.272727 -0.000000    0.00075131  30 t-inv F
  0.000000 -0.272727  0.272727    0.00075131  30 t-inv F
 -0.000000  0.272727 -0.272727    0.00075131  30 t-inv F
  0.272727  0.000000 -0.272727    0.00075131  30 t-inv F
 -0.272727 -0.000000  0.272727    0.00075131  30 t-inv F
  0.272727  0.272727  0.545455    0.00075131  30 t-inv F
 -0.272727 -0.272727 -0.545455    0.00075131  30 t-inv F
 -0.272727 -0.545455 -0.272727    0.00075131  30 t-inv F
  0.272727  0.545455  0.272727    0.00075131  30 t-inv F
 -0.545455 -0.272727 -0.272727    0.00075131  30 t-inv F
  0.545455  0.272727  0.272727    0.00075131  30 t-inv F
 -0.363636 -0.363636 -0.000000    0.00075131  31 t-inv F
  0.000000  0.363636  0.363636    0.00075131  31 t-inv F
 -0.000000 -0.363636 -0.363636    0.00075131  31 t-inv F
  0.363636  0.000000  0.363636    0.00075131  31 t-inv F
 -0.363636 -0.000000 -0.363636    0.00075131  31 t-inv F
 -0.454545 -0.363636 -0.000000    0.00075131  32 t-inv F
  0.000000  0.454545  0.363636    0.00075131  32 t-inv F
 -0.000000 -0.454545 -0.363636    0.00075131  32 t-inv F
  0.363636  0.000000  0.454545    0.00075131  32 t-inv F
 -0.363636 -0.000000 -0.454545    0.00075131  32 t-inv F
 -0.454545 -0.000000 -0.363636    0.00075131  32 t-inv F
  0.454545  0.000000  0.363636    0.00075131  32 t-inv F
 -0.363636 -0.454545 -0.000000    0.00075131  32 t-inv F
  0.363636  0.454545  0.000000    0.00075131  32 t-inv F
 -0.000000 -0.363636 -0.454545    0.00075131  32 t-inv F
  0.000000  0.363636  0.454545    0.00075131  32 t-inv F
  0.363636  0.363636 -0.090909    0.00075131  32 t-inv F
 -0.363636 -0.363636  0.090909    0.00075131  32 t-inv F
  0.454545  0.090909  0.454545    0.00075131  32 t-inv F
 -0.454545 -0.090909 -0.454545    0.00075131  32 t-inv F
  0.090909 -0.363636 -0.363636    0.00075131  32 t-inv F
 -0.090909  0.363636  0.363636    0.00075131  32 t-inv F
  0.454545  0.454545  0.090909    0.00075131  32 t-inv F
 -0.454545 -0.454545 -0.090909    0.00075131  32 t-inv F
 -0.363636  0.090909 -0.363636    0.00075131  32 t-inv F
  0.363636 -0.090909  0.363636    0.00075131  32 t-inv F
  0.090909  0.454545  0.454545    0.00075131  32 t-inv F
 -0.090909 -0.454545 -0.454545    0.00075131  32 t-inv F
  0.454545 -0.363636 -0.000000    0.00075131  33 t-inv F
  0.000000 -0.454545  0.363636    0.00075131  33 t-inv F
 -0.000000  0.454545 -0.363636    0.00075131  33 t-inv F
  0.363636  0.000000 -0.454545    0.00075131  33 t-inv F
 -0.363636 -0.000000  0.454545    0.00075131  33 t-inv F
  0.454545 -0.000000 -0.363636    0.00075131  33 t-inv F
 -0.454545  0.000000  0.363636    0.00075131  33 t-inv F
 -0.363636  0.454545 -0.000000    0.00075131  33 t-inv F
  0.363636 -0.454545  0.000000    0.00075131  33 t-inv F
 -0.000000 -0.363636  0.454545    0.00075131  33 t-inv F
  0.000000  0.363636 -0.454545    0.00075131  33 t-inv F
  0.363636  0.363636  0.818182    0.00075131  33 t-inv F
 -0.363636 -0.363636 -0.818182    0.00075131  33 t-inv F
 -0.454545 -0.818182 -0.454545    0.00075131  33 t-inv F
  0.454545  0.818182  0.454545    0.00075131  33 t-inv F
 -0.818182 -0.363636 -0.363636    0.00075131  33 t-inv F
  0.818182  0.363636  0.363636    0.00075131  33 t-inv F
 -0.454545 -0.454545 -0.818182    0.00075131  33 t-inv F
  0.454545  0.454545  0.818182    0.00075131  33 t-inv F
 -0.363636 -0.818182 -0.363636    0.00075131  33 t-inv F
  0.363636  0.818182  0.363636    0.00075131  33 t-inv F
 -0.818182 -0.454545 -0.454545    0.00075131  33 t-inv F
  0.818182  0.454545  0.454545    0.00075131  33 t-inv F
  0.363636 -0.363636 -0.000000    0.00075131  34 t-inv F
  0.000000 -0.363636  0.363636    0.00075131  34 t-inv F
 -0.000000  0.363636 -0.363636    0.00075131  34 t-inv F
  0.363636  0.000000 -0.363636    0.00075131  34 t-inv F
 -0.363636 -0.000000  0.363636    0.00075131  34 t-inv F
  0.363636  0.363636  0.727273    0.00075131  34 t-inv F
 -0.363636 -0.363636 -0.727273    0.00075131  34 t-inv F
 -0.363636 -0.727273 -0.363636    0.00075131  34 t-inv F
  0.363636  0.727273  0.363636    0.00075131  34 t-inv F
 -0.727273 -0.363636 -0.363636    0.00075131  34 t-inv F
  0.727273  0.363636  0.363636    0.00075131  34 t-inv F
 -0.454545 -0.454545 -0.000000    0.00075131  35 t-inv F
  0.000000  0.454545  0.454545    0.00075131  35 t-inv F
 -0.000000 -0.454545 -0.454545    0.00075131  35 t-inv F
  0.454545  0.000000  0.454545    0.00075131  35 t-inv F
 -0.454545 -0.000000 -0.454545    0.00075131  35 t-inv F
  0.454545 -0.454545 -0.000000    0.00075131  36 t-inv F
  0.000000 -0.454545  0.454545    0.00075131  36 t-inv F
 -0.000000  0.454545 -0.454545    0.00075131  36 t-inv F
  0.454545  0.000000 -0.454545    0.00075131  36 t-inv F
 -0.454545 -0.000000  0.454545    0.00075131  36 t-inv F
  0.454545  0.454545  0.909091    0.00075131  36 t-inv F
 -0.454545 -0.454545 -0.909091    0.00075131  36 t-inv F
 -0.454545 -0.909091 -0.454545    0.00075131  36 t-inv F
  0.454545  0.909091  0.454545    0.00075131  36 t-inv F
 -0.909091 -0.454545 -0.454545    0.00075131  36 t-inv F
  0.909091  0.454545  0.454545    0.00075131  36 t-inv F
 -0.272727 -0.181818 -0.090909    0.00075131  37 t-inv F
  0.090909  0.272727  0.181818    0.00075131  37 t-inv F
 -0.090909 -0.272727 -0.181818    0.00075131  37 t-inv F
  0.181818  0.090909  0.272727    0.00075131  37 t-inv F
 -0.181818 -0.090909 -0.272727    0.00075131  37 t-inv F
 -0.272727 -0.090909 -0.181818    0.00075131  37 t-inv F
  0.272727  0.090909  0.181818    0.00075131  37 t-inv F
 -0.181818 -0.272727 -0.090909    0.00075131  37 t-inv F
  0.181818  0.272727  0.090909    0.00075131  37 t-inv F
 -0.090909 -0.181818 -0.272727    0.00075131  37 t-inv F
  0.090909  0.181818  0.272727    0.00075131  37 t-inv F
  0.181818  0.090909 -0.090909    0.00075131  37 t-inv F
 -0.181818 -0.090909  0.090909    0.00075131  37 t-inv F
  0.090909 -0.181818 -0.090909    0.00075131  37 t-inv F
 -0.090909  0.181818  0.090909    0.00075131  37 t-inv F
  0.090909  0.181818 -0.090909    0.00075131  37 t-inv F
 -0.090909 -0.181818  0.090909    0.00075131  37 t-inv F
  0.090909 -0.090909 -0.181818    0.00075131  37 t-inv F
 -0.090909  0.090909  0.181818    0.00075131  37 t-inv F
 -0.090909  0.090909 -0.181818    0.00075131  37 t-inv F
  0.090909 -0.090909  0.181818    0.00075131  37 t-inv F
 -0.181818  0.090909 -0.090909    0.00075131  37 t-inv F
  0.181818 -0.090909  0.090909    0.00075131  37 t-inv F
 -0.363636 -0.181818 -0.090909    0.00075131  38 t-inv F
  0.090909  0.363636  0.181818    0.00075131  38 t-inv F
 -0.090909 -0.363636 -0.181818    0.00075131  38 t-inv F
  0.181818  0.090909  0.363636    0.00075131  38 t-inv F
 -0.181818 -0.090909 -0.363636    0.00075131  38 t-inv F
 -0.363636 -0.090909 -0.181818    0.00075131  38 t-inv F
  0.363636  0.090909  0.181818    0.00075131  38 t-inv F
 -0.181818 -0.363636 -0.090909    0.00075131  38 t-inv F
  0.181818  0.363636  0.090909    0.00075131  38 t-inv F
 -0.090909 -0.181818 -0.363636    0.00075131  38 t-inv F
  0.090909  0.181818  0.363636    0.00075131  38 t-inv F
  0.181818  0.090909 -0.181818    0.00075131  38 t-inv F
 -0.181818 -0.090909  0.181818    0.00075131  38 t-inv F
  0.363636  0.181818  0.272727    0.00075131  38 t-inv F
 -0.363636 -0.181818 -0.272727    0.00075131  38 t-inv F
  0.090909 -0.272727 -0.090909    0.00075131  38 t-inv F
 -0.090909  0.272727  0.090909    0.00075131  38 t-inv F
  0.090909  0.272727 -0.090909    0.00075131  38 t-inv F
 -0.090909 -0.272727  0.090909    0.00075131  38 t-inv F
  0.181818 -0.090909 -0.181818    0.00075131  38 t-inv F
 -0.181818  0.090909  0.181818    0.00075131  38 t-inv F
 -0.272727 -0.181818 -0.363636    0.00075131  38 t-inv F
  0.272727  0.181818  0.363636    0.00075131  38 t-inv F
  0.272727  0.363636  0.181818    0.00075131  38 t-inv F
 -0.272727 -0.363636 -0.181818    0.00075131  38 t-inv F
 -0.090909  0.090909 -0.272727    0.00075131  38 t-inv F
  0.090909 -0.090909  0.272727    0.00075131  38 t-inv F
 -0.181818  0.181818  0.090909    0.00075131  38 t-inv F
  0.181818 -0.181818 -0.090909    0.00075131  38 t-inv F
 -0.090909  0.090909  0.272727    0.00075131  38 t-inv F
  0.090909 -0.090909 -0.272727    0.00075131  38 t-inv F
 -0.181818  0.181818 -0.090909    0.00075131  38 t-inv F
  0.181818 -0.181818  0.090909    0.00075131  38 t-inv F
 -0.363636 -0.272727 -0.181818    0.00075131  38 t-inv F
  0.363636  0.272727  0.181818    0.00075131  38 t-inv F
  0.181818  0.272727  0.363636    0.00075131  38 t-inv F
 -0.181818 -0.272727 -0.363636    0.00075131  38 t-inv F
 -0.272727 -0.090909  0.090909    0.00075131  38 t-inv F
  0.272727  0.090909 -0.090909    0.00075131  38 t-inv F
  0.090909 -0.181818  0.181818    0.00075131  38 t-inv F
 -0.090909  0.181818 -0.181818    0.00075131  38 t-inv F
  0.272727 -0.090909  0.090909    0.00075131  38 t-inv F
 -0.272727  0.090909 -0.090909    0.00075131  38 t-inv F
 -0.090909 -0.181818  0.181818    0.00075131  38 t-inv F
  0.090909  0.181818 -0.181818    0.00075131  38 t-inv F
 -0.181818 -0.363636 -0.272727    0.00075131  38 t-inv F
  0.181818  0.363636  0.272727    0.00075131  38 t-inv F
 -0.454545 -0.181818 -0.090909    0.00075131  39 t-inv F
  0.090909  0.454545  0.181818    0.00075131  39 t-inv F
 -0.090909 -0.454545 -0.181818    0.00075131  39 t-inv F
  0.181818  0.090909  0.454545    0.00075131  39 t-inv F
 -0.181818 -0.090909 -0.454545    0.00075131  39 t-inv F
 -0.454545 -0.090909 -0.181818    0.00075131  39 t-inv F
  0.454545  0.090909  0.181818    0.00075131  39 t-inv F
 -0.181818 -0.454545 -0.090909    0.00075131  39 t-inv F
  0.181818  0.454545  0.090909    0.00075131  39 t-inv F
 -0.090909 -0.181818 -0.454545    0.00075131  39 t-inv F
  0.090909  0.181818  0.454545    0.00075131  39 t-inv F
  0.181818  0.090909 -0.272727    0.00075131  39 t-inv F
 -0.181818 -0.090909  0.272727    0.00075131  39 t-inv F
  0.454545  0.272727  0.363636    0.00075131  39 t-inv F
 -0.454545 -0.272727 -0.363636    0.00075131  39 t-inv F
  0.090909 -0.363636 -0.090909    0.00075131  39 t-inv F
 -0.090909  0.363636  0.090909    0.00075131  39 t-inv F
  0.090909  0.363636 -0.090909    0.00075131  39 t-inv F
 -0.090909 -0.363636  0.090909    0.00075131  39 t-inv F
  0.272727 -0.090909 -0.181818    0.00075131  39 t-inv F
 -0.272727  0.090909  0.181818    0.00075131  39 t-inv F
 -0.363636 -0.272727 -0.454545    0.00075131  39 t-inv F
  0.363636  0.272727  0.454545    0.00075131  39 t-inv F
  0.363636  0.454545  0.272727    0.00075131  39 t-inv F
 -0.363636 -0.454545 -0.272727    0.00075131  39 t-inv F
 -0.090909  0.090909 -0.363636    0.00075131  39 t-inv F
  0.090909 -0.090909  0.363636    0.00075131  39 t-inv F
 -0.272727  0.181818  0.090909    0.00075131  39 t-inv F
  0.272727 -0.181818 -0.090909    0.00075131  39 t-inv F
 -0.090909  0.090909  0.363636    0.00075131  39 t-inv F
  0.090909 -0.090909 -0.363636    0.00075131  39 t-inv F
 -0.181818  0.272727 -0.090909    0.00075131  39 t-inv F
  0.181818 -0.272727  0.090909    0.00075131  39 t-inv F
 -0.454545 -0.363636 -0.272727    0.00075131  39 t-inv F
  0.454545  0.363636  0.272727    0.00075131  39 t-inv F
  0.272727  0.363636  0.454545    0.00075131  39 t-inv F
 -0.272727 -0.363636 -0.454545    0.00075131  39 t-inv F
 -0.363636 -0.090909  0.090909    0.00075131  39 t-inv F
  0.363636  0.090909 -0.090909    0.00075131  39 t-inv F
  0.090909 -0.272727  0.181818    0.00075131  39 t-inv F
 -0.090909  0.272727 -0.181818    0.00075131  39 t-inv F
  0.363636 -0.090909  0.090909    0.00075131  39 t-inv F
 -0.363636  0.090909 -0.090909    0.00075131  39 t-inv F
 -0.090909 -0.181818  0.272727    0.00075131  39 t-inv F
  0.090909  0.181818 -0.272727    0.00075131  39 t-inv F
 -0.272727 -0.454545 -0.363636    0.00075131  39 t-inv F
  0.272727  0.454545  0.363636    0.00075131  39 t-inv F
  0.454545 -0.181818 -0.090909    0.00075131  40 t-inv F
  0.090909 -0.454545  0.181818    0.00075131  40 t-inv F
 -0.090909  0.454545 -0.181818    0.00075131  40 t-inv F
  0.181818  0.090909 -0.454545    0.00075131  40 t-inv F
 -0.181818 -0.090909  0.454545    0.00075131  40 t-inv F
  0.454545 -0.090909 -0.181818    0.00075131  40 t-inv F
 -0.454545  0.090909  0.181818    0.00075131  40 t-inv F
 -0.181818  0.454545 -0.090909    0.00075131  40 t-inv F
  0.181818 -0.454545  0.090909    0.00075131  40 t-inv F
 -0.090909 -0.181818  0.454545    0.00075131  40 t-inv F
  0.090909  0.181818 -0.454545    0.00075131  40 t-inv F
  0.181818  0.090909  0.636364    0.00075131  40 t-inv F
 -0.181818 -0.090909 -0.636364    0.00075131  40 t-inv F
 -0.454545 -0.636364 -0.545455    0.00075131  40 t-inv F
  0.454545  0.636364  0.545455    0.00075131  40 t-inv F
  0.090909  0.545455 -0.090909    0.00075131  40 t-inv F
 -0.090909 -0.545455  0.090909    0.00075131  40 t-inv F
  0.090909 -0.545455 -0.090909    0.00075131  40 t-inv F
 -0.090909  0.545455  0.090909    0.00075131  40 t-inv F
 -0.636364 -0.090909 -0.181818    0.00075131  40 t-inv F
  0.636364  0.090909  0.181818    0.00075131  40 t-inv F
  0.545455  0.636364  0.454545    0.00075131  40 t-inv F
 -0.545455 -0.636364 -0.454545    0.00075131  40 t-inv F
 -0.545455 -0.454545 -0.636364    0.00075131  40 t-inv F
  0.545455  0.454545  0.636364    0.00075131  40 t-inv F
 -0.090909  0.090909  0.545455    0.00075131  40 t-inv F
  0.090909 -0.090909 -0.545455    0.00075131  40 t-inv F
  0.636364  0.181818  0.090909    0.00075131  40 t-inv F
 -0.636364 -0.181818 -0.090909    0.00075131  40 t-inv F
 -0.090909  0.090909 -0.545455    0.00075131  40 t-inv F
  0.090909 -0.090909  0.545455    0.00075131  40 t-inv F
 -0.181818 -0.636364 -0.090909    0.00075131  40 t-inv F
  0.181818  0.636364  0.090909    0.00075131  40 t-inv F
  0.454545  0.545455  0.636364    0.00075131  40 t-inv F
 -0.454545 -0.545455 -0.636364    0.00075131  40 t-inv F
 -0.636364 -0.545455 -0.454545    0.00075131  40 t-inv F
  0.636364  0.545455  0.454545    0.00075131  40 t-inv F
  0.545455 -0.090909  0.090909    0.00075131  40 t-inv F
 -0.545455  0.090909 -0.090909    0.00075131  40 t-inv F
  0.090909  0.636364  0.181818    0.00075131  40 t-inv F
 -0.090909 -0.636364 -0.181818    0.00075131  40 t-inv F
 -0.545455 -0.090909  0.090909    0.00075131  40 t-inv F
  0.545455  0.090909 -0.090909    0.00075131  40 t-inv F
 -0.090909 -0.181818 -0.636364    0.00075131  40 t-inv F
  0.090909  0.181818  0.636364    0.00075131  40 t-inv F
  0.636364  0.454545  0.545455    0.00075131  40 t-inv F
 -0.636364 -0.454545 -0.545455    0.00075131  40 t-inv F
 -0.363636 -0.272727 -0.090909    0.00075131  41 t-inv F
  0.090909  0.363636  0.272727    0.00075131  41 t-inv F
 -0.090909 -0.363636 -0.272727    0.00075131  41 t-inv F
  0.272727  0.090909  0.363636    0.00075131  41 t-inv F
 -0.272727 -0.090909 -0.363636    0.00075131  41 t-inv F
 -0.363636 -0.090909 -0.272727    0.00075131  41 t-inv F
  0.363636  0.090909  0.272727    0.00075131  41 t-inv F
 -0.272727 -0.363636 -0.090909    0.00075131  41 t-inv F
  0.272727  0.363636  0.090909    0.00075131  41 t-inv F
 -0.090909 -0.272727 -0.363636    0.00075131  41 t-inv F
  0.090909  0.272727  0.363636    0.00075131  41 t-inv F
  0.272727  0.181818 -0.090909    0.00075131  41 t-inv F
 -0.272727 -0.181818  0.090909    0.00075131  41 t-inv F
  0.090909 -0.272727 -0.181818    0.00075131  41 t-inv F
 -0.090909  0.272727  0.181818    0.00075131  41 t-inv F
  0.181818  0.272727 -0.090909    0.00075131  41 t-inv F
 -0.181818 -0.272727  0.090909    0.00075131  41 t-inv F
  0.090909 -0.181818 -0.272727    0.00075131  41 t-inv F
 -0.090909  0.181818  0.272727    0.00075131  41 t-inv F
 -0.181818  0.090909 -0.272727    0.00075131  41 t-inv F
  0.181818 -0.090909  0.272727    0.00075131  41 t-inv F
 -0.272727  0.090909 -0.181818    0.00075131  41 t-inv F
  0.272727 -0.090909  0.181818    0.00075131  41 t-inv F
 -0.454545 -0.272727 -0.090909    0.00075131  42 t-inv F
  0.090909  0.454545  0.272727    0.00075131  42 t-inv F
 -0.090909 -0.454545 -0.272727    0.00075131  42 t-inv F
  0.272727  0.090909  0.454545    0.00075131  42 t-inv F
 -0.272727 -0.090909 -0.454545    0.00075131  42 t-inv F
 -0.454545 -0.090909 -0.272727    0.00075131  42 t-inv F
  0.454545  0.090909  0.272727    0.00075131  42 t-inv F
 -0.272727 -0.454545 -0.090909    0.00075131  42 t-inv F
  0.272727  0.454545  0.090909    0.00075131  42 t-inv F
 -0.090909 -0.272727 -0.454545    0.00075131  42 t-inv F
  0.090909  0.272727  0.454545    0.00075131  42 t-inv F
  0.272727  0.181818 -0.181818    0.00075131  42 t-inv F
 -0.272727 -0.181818  0.181818    0.00075131  42 t-inv F
  0.454545  0.181818  0.363636    0.00075131  42 t-inv F
 -0.454545 -0.181818 -0.363636    0.00075131  42 t-inv F
  0.090909 -0.363636 -0.181818    0.00075131  42 t-inv F
 -0.090909  0.363636  0.181818    0.00075131  42 t-inv F
  0.181818  0.363636 -0.090909    0.00075131  42 t-inv F
 -0.181818 -0.363636  0.090909    0.00075131  42 t-inv F
  0.181818 -0.181818 -0.272727    0.00075131  42 t-inv F
 -0.181818  0.181818  0.272727    0.00075131  42 t-inv F
 -0.363636 -0.181818 -0.454545    0.00075131  42 t-inv F
  0.363636  0.181818  0.454545    0.00075131  42 t-inv F
  0.363636  0.454545  0.181818    0.00075131  42 t-inv F
 -0.363636 -0.454545 -0.181818    0.00075131  42 t-inv F
 -0.181818  0.090909 -0.363636    0.00075131  42 t-inv F
  0.181818 -0.090909  0.363636    0.00075131  42 t-inv F
 -0.181818  0.272727  0.181818    0.00075131  42 t-inv F
  0.181818 -0.272727 -0.181818    0.00075131  42 t-inv F
 -0.090909  0.181818  0.363636    0.00075131  42 t-inv F
  0.090909 -0.181818 -0.363636    0.00075131  42 t-inv F
 -0.272727  0.181818 -0.181818    0.00075131  42 t-inv F
  0.272727 -0.181818  0.181818    0.00075131  42 t-inv F
 -0.454545 -0.363636 -0.181818    0.00075131  42 t-inv F
  0.454545  0.363636  0.181818    0.00075131  42 t-inv F
  0.181818  0.363636  0.454545    0.00075131  42 t-inv F
 -0.181818 -0.363636 -0.454545    0.00075131  42 t-inv F
 -0.363636 -0.181818  0.090909    0.00075131  42 t-inv F
  0.363636  0.181818 -0.090909    0.00075131  42 t-inv F
  0.181818 -0.181818  0.272727    0.00075131  42 t-inv F
 -0.181818  0.181818 -0.272727    0.00075131  42 t-inv F
  0.363636 -0.090909  0.181818    0.00075131  42 t-inv F
 -0.363636  0.090909 -0.181818    0.00075131  42 t-inv F
 -0.181818 -0.272727  0.181818    0.00075131  42 t-inv F
  0.181818  0.272727 -0.181818    0.00075131  42 t-inv F
 -0.181818 -0.454545 -0.363636    0.00075131  42 t-inv F
  0.181818  0.454545  0.363636    0.00075131  42 t-inv F
  0.454545 -0.272727 -0.090909    0.00075131  43 t-inv F
  0.090909 -0.454545  0.272727    0.00075131  43 t-inv F
 -0.090909  0.454545 -0.272727    0.00075131  43 t-inv F
  0.272727  0.090909 -0.454545    0.00075131  43 t-inv F
 -0.272727 -0.090909  0.454545    0.00075131  43 t-inv F
  0.454545 -0.090909 -0.272727    0.00075131  43 t-inv F
 -0.454545  0.090909  0.272727    0.00075131  43 t-inv F
 -0.272727  0.454545 -0.090909    0.00075131  43 t-inv F
  0.272727 -0.454545  0.090909    0.00075131  43 t-inv F
 -0.090909 -0.272727  0.454545    0.00075131  43 t-inv F
  0.090909  0.272727 -0.454545    0.00075131  43 t-inv F
  0.272727  0.181818  0.727273    0.00075131  43 t-inv F
 -0.272727 -0.181818 -0.727273    0.00075131  43 t-inv F
 -0.454545 -0.727273 -0.545455    0.00075131  43 t-inv F
  0.454545  0.727273  0.545455    0.00075131  43 t-inv F
  0.090909  0.545455 -0.181818    0.00075131  43 t-inv F
 -0.090909 -0.545455  0.181818    0.00075131  43 t-inv F
  0.181818 -0.545455 -0.090909    0.00075131  43 t-inv F
 -0.181818  0.545455  0.090909    0.00075131  43 t-inv F
 -0.727273 -0.181818 -0.272727    0.00075131  43 t-inv F
  0.727273  0.181818  0.272727    0.00075131  43 t-inv F
  0.545455  0.727273  0.454545    0.00075131  43 t-inv F
 -0.545455 -0.727273 -0.454545    0.00075131  43 t-inv F
 -0.545455 -0.454545 -0.727273    0.00075131  43 t-inv F
  0.545455  0.454545  0.727273    0.00075131  43 t-inv F
 -0.181818  0.090909  0.545455    0.00075131  43 t-inv F
  0.181818 -0.090909 -0.545455    0.00075131  43 t-inv F
  0.727273  0.272727  0.181818    0.00075131  43 t-inv F
 -0.727273 -0.272727 -0.181818    0.00075131  43 t-inv F
 -0.090909  0.181818 -0.545455    0.00075131  43 t-inv F
  0.090909 -0.181818  0.545455    0.00075131  43 t-inv F
 -0.272727 -0.727273 -0.181818    0.00075131  43 t-inv F
  0.272727  0.727273  0.181818    0.00075131  43 t-inv F
  0.454545  0.545455  0.727273    0.00075131  43 t-inv F
 -0.454545 -0.545455 -0.727273    0.00075131  43 t-inv F
 -0.727273 -0.545455 -0.454545    0.00075131  43 t-inv F
  0.727273  0.545455  0.454545    0.00075131  43 t-inv F
  0.545455 -0.181818  0.090909    0.00075131  43 t-inv F
 -0.545455  0.181818 -0.090909    0.00075131  43 t-inv F
  0.181818  0.727273  0.272727    0.00075131  43 t-inv F
 -0.181818 -0.727273 -0.272727    0.00075131  43 t-inv F
 -0.545455 -0.090909  0.181818    0.00075131  43 t-inv F
  0.545455  0.090909 -0.181818    0.00075131  43 t-inv F
 -0.181818 -0.272727 -0.727273    0.00075131  43 t-inv F
  0.181818  0.272727  0.727273    0.00075131  43 t-inv F
  0.727273  0.454545  0.545455    0.00075131  43 t-inv F
 -0.727273 -0.454545 -0.545455    0.00075131  43 t-inv F
  0.363636 -0.272727 -0.090909    0.00075131  44 t-inv F
  0.090909 -0.363636  0.272727    0.00075131  44 t-inv F
 -0.090909  0.363636 -0.272727    0.00075131  44 t-inv F
  0.272727  0.090909 -0.363636    0.00075131  44 t-inv F
 -0.272727 -0.090909  0.363636    0.00075131  44 t-inv F
  0.363636 -0.090909 -0.272727    0.00075131  44 t-inv F
 -0.363636  0.090909  0.272727    0.00075131  44 t-inv F
 -0.272727  0.363636 -0.090909    0.00075131  44 t-inv F
  0.272727 -0.363636  0.090909    0.00075131  44 t-inv F
 -0.090909 -0.272727  0.363636    0.00075131  44 t-inv F
  0.090909  0.272727 -0.363636    0.00075131  44 t-inv F
  0.272727  0.181818  0.636364    0.00075131  44 t-inv F
 -0.272727 -0.181818 -0.636364    0.00075131  44 t-inv F
 -0.363636 -0.636364 -0.454545    0.00075131  44 t-inv F
  0.363636  0.636364  0.454545    0.00075131  44 t-inv F
  0.090909  0.454545 -0.181818    0.00075131  44 t-inv F
 -0.090909 -0.454545  0.181818    0.00075131  44 t-inv F
  0.181818 -0.454545 -0.090909    0.00075131  44 t-inv F
 -0.181818  0.454545  0.090909    0.00075131  44 t-inv F
 -0.636364 -0.181818 -0.272727    0.00075131  44 t-inv F
  0.636364  0.181818  0.272727    0.00075131  44 t-inv F
  0.454545  0.636364  0.363636    0.00075131  44 t-inv F
 -0.454545 -0.636364 -0.363636    0.00075131  44 t-inv F
 -0.454545 -0.363636 -0.636364    0.00075131  44 t-inv F
  0.454545  0.363636  0.636364    0.00075131  44 t-inv F
 -0.181818  0.090909  0.454545    0.00075131  44 t-inv F
  0.181818 -0.090909 -0.454545    0.00075131  44 t-inv F
  0.636364  0.272727  0.181818    0.00075131  44 t-inv F
 -0.636364 -0.272727 -0.181818    0.00075131  44 t-inv F
 -0.090909  0.181818 -0.454545    0.00075131  44 t-inv F
  0.090909 -0.181818  0.454545    0.00075131  44 t-inv F
 -0.272727 -0.636364 -0.181818    0.00075131  44 t-inv F
  0.272727  0.636364  0.181818    0.00075131  44 t-inv F
  0.363636  0.454545  0.636364    0.00075131  44 t-inv F
 -0.363636 -0.454545 -0.636364    0.00075131  44 t-inv F
 -0.636364 -0.454545 -0.363636    0.00075131  44 t-inv F
  0.636364  0.454545  0.363636    0.00075131  44 t-inv F
  0.454545 -0.181818  0.090909    0.00075131  44 t-inv F
 -0.454545  0.181818 -0.090909    0.00075131  44 t-inv F
  0.181818  0.636364  0.272727    0.00075131  44 t-inv F
 -0.181818 -0.636364 -0.272727    0.00075131  44 t-inv F
 -0.454545 -0.090909  0.181818    0.00075131  44 t-inv F
  0.454545  0.090909 -0.181818    0.00075131  44 t-inv F
 -0.181818 -0.272727 -0.636364    0.00075131  44 t-inv F
  0.181818  0.272727  0.636364    0.00075131  44 t-inv F
  0.636364  0.363636  0.454545    0.00075131  44 t-inv F
 -0.636364 -0.363636 -0.454545    0.00075131  44 t-inv F
  0.272727 -0.272727 -0.090909    0.00075131  45 t-inv F
  0.090909 -0.272727  0.272727    0.00075131  45 t-inv F
 -0.090909  0.272727 -0.272727    0.00075131  45 t-inv F
  0.272727  0.090909 -0.272727    0.00075131  45 t-inv F
 -0.272727 -0.090909  0.272727    0.00075131  45 t-inv F
  0.272727 -0.090909 -0.272727    0.00075131  45 t-inv F
 -0.272727  0.090909  0.272727    0.00075131  45 t-inv F
 -0.272727  0.272727 -0.090909    0.00075131  45 t-inv F
  0.272727 -0.272727  0.090909    0.00075131  45 t-inv F
 -0.090909 -0.272727  0.272727    0.00075131  45 t-inv F
  0.090909  0.272727 -0.272727    0.00075131  45 t-inv F
  0.272727  0.181818  0.545455    0.00075131  45 t-inv F
 -0.272727 -0.181818 -0.545455    0.00075131  45 t-inv F
 -0.272727 -0.545455 -0.363636    0.00075131  45 t-inv F
  0.272727  0.545455  0.363636    0.00075131  45 t-inv F
  0.090909  0.363636 -0.181818    0.00075131  45 t-inv F
 -0.090909 -0.363636  0.181818    0.00075131  45 t-inv F
  0.181818 -0.363636 -0.090909    0.00075131  45 t-inv F
 -0.181818  0.363636  0.090909    0.00075131  45 t-inv F
 -0.545455 -0.181818 -0.272727    0.00075131  45 t-inv F
  0.545455  0.181818  0.272727    0.00075131  45 t-inv F
  0.363636  0.545455  0.272727    0.00075131  45 t-inv F
 -0.363636 -0.545455 -0.272727    0.00075131  45 t-inv F
 -0.363636 -0.272727 -0.545455    0.00075131  45 t-inv F
  0.363636  0.272727  0.545455    0.00075131  45 t-inv F
 -0.181818  0.090909  0.363636    0.00075131  45 t-inv F
  0.181818 -0.090909 -0.363636    0.00075131  45 t-inv F
  0.545455  0.272727  0.181818    0.00075131  45 t-inv F
 -0.545455 -0.272727 -0.181818    0.00075131  45 t-inv F
 -0.090909  0.181818 -0.363636    0.00075131  45 t-inv F
  0.090909 -0.181818  0.363636    0.00075131  45 t-inv F
 -0.272727 -0.545455 -0.181818    0.00075131  45 t-inv F
  0.272727  0.545455  0.181818    0.00075131  45 t-inv F
  0.272727  0.363636  0.545455    0.00075131  45 t-inv F
 -0.272727 -0.363636 -0.545455    0.00075131  45 t-inv F
 -0.545455 -0.363636 -0.272727    0.00075131  45 t-inv F
  0.545455  0.363636  0.272727    0.00075131  45 t-inv F
  0.363636 -0.181818  0.090909    0.00075131  45 t-inv F
 -0.363636  0.181818 -0.090909    0.00075131  45 t-inv F
  0.181818  0.545455  0.272727    0.00075131  45 t-inv F
 -0.181818 -0.545455 -0.272727    0.00075131  45 t-inv F
 -0.363636 -0.090909  0.181818    0.00075131  45 t-inv F
  0.363636  0.090909 -0.181818    0.00075131  45 t-inv F
 -0.181818 -0.272727 -0.545455    0.00075131  45 t-inv F
  0.181818  0.272727  0.545455    0.00075131  45 t-inv F
  0.545455  0.272727  0.363636    0.00075131  45 t-inv F
 -0.545455 -0.272727 -0.363636    0.00075131  45 t-inv F
  0.181818 -0.272727 -0.090909    0.00075131  46 t-inv F
  0.090909 -0.181818  0.272727    0.00075131  46 t-inv F
 -0.090909  0.181818 -0.272727    0.00075131  46 t-inv F
  0.272727  0.090909 -0.181818    0.00075131  46 t-inv F
 -0.272727 -0.090909  0.181818    0.00075131  46 t-inv F
  0.181818 -0.090909 -0.272727    0.00075131  46 t-inv F
 -0.181818  0.090909  0.272727    0.00075131  46 t-inv F
 -0.272727  0.181818 -0.090909    0.00075131  46 t-inv F
  0.272727 -0.181818  0.090909    0.00075131  46 t-inv F
 -0.090909 -0.272727  0.181818    0.00075131  46 t-inv F
  0.090909  0.272727 -0.181818    0.00075131  46 t-inv F
  0.272727  0.181818  0.454545    0.00075131  46 t-inv F
 -0.272727 -0.181818 -0.454545    0.00075131  46 t-inv F
 -0.181818 -0.454545 -0.272727    0.00075131  46 t-inv F
  0.181818  0.454545  0.272727    0.00075131  46 t-inv F
 -0.454545 -0.181818 -0.272727    0.00075131  46 t-inv F
  0.454545  0.181818  0.272727    0.00075131  46 t-inv F
  0.272727  0.454545  0.181818    0.00075131  46 t-inv F
 -0.272727 -0.454545 -0.181818    0.00075131  46 t-inv F
  0.454545  0.272727  0.181818    0.00075131  46 t-inv F
 -0.454545 -0.272727 -0.181818    0.00075131  46 t-inv F
  0.181818  0.272727  0.454545    0.00075131  46 t-inv F
 -0.181818 -0.272727 -0.454545    0.00075131  46 t-inv F
 -0.454545 -0.363636 -0.090909    0.00075131  47 t-inv F
  0.090909  0.454545  0.363636    0.00075131  47 t-inv F
 -0.090909 -0.454545 -0.363636    0.00075131  47 t-inv F
  0.363636  0.090909  0.454545    0.00075131  47 t-inv F
 -0.363636 -0.090909 -0.454545    0.00075131  47 t-inv F
 -0.454545 -0.090909 -0.363636    0.00075131  47 t-inv F
  0.454545  0.090909  0.363636    0.00075131  47 t-inv F
 -0.363636 -0.454545 -0.090909    0.00075131  47 t-inv F
  0.363636  0.454545  0.090909    0.00075131  47 t-inv F
 -0.090909 -0.363636 -0.454545    0.00075131  47 t-inv F
  0.090909  0.363636  0.454545    0.00075131  47 t-inv F
  0.363636  0.272727 -0.090909    0.00075131  47 t-inv F
 -0.363636 -0.272727  0.090909    0.00075131  47 t-inv F
  0.090909 -0.363636 -0.272727    0.00075131  47 t-inv F
 -0.090909  0.363636  0.272727    0.00075131  47 t-inv F
  0.272727  0.363636 -0.090909    0.00075131  47 t-inv F
 -0.272727 -0.363636  0.090909    0.00075131  47 t-inv F
  0.090909 -0.272727 -0.363636    0.00075131  47 t-inv F
 -0.090909  0.272727  0.363636    0.00075131  47 t-inv F
 -0.272727  0.090909 -0.363636    0.00075131  47 t-inv F
  0.272727 -0.090909  0.363636    0.00075131  47 t-inv F
 -0.363636  0.090909 -0.272727    0.00075131  47 t-inv F
  0.363636 -0.090909  0.272727    0.00075131  47 t-inv F
  0.454545 -0.363636 -0.090909    0.00075131  48 t-inv F
  0.090909 -0.454545  0.363636    0.00075131  48 t-inv F
 -0.090909  0.454545 -0.363636    0.00075131  48 t-inv F
  0.363636  0.090909 -0.454545    0.00075131  48 t-inv F
 -0.363636 -0.090909  0.454545    0.00075131  48 t-inv F
  0.454545 -0.090909 -0.363636    0.00075131  48 t-inv F
 -0.454545  0.090909  0.363636    0.00075131  48 t-inv F
 -0.363636  0.454545 -0.090909    0.00075131  48 t-inv F
  0.363636 -0.454545  0.090909    0.00075131  48 t-inv F
 -0.090909 -0.363636  0.454545    0.00075131  48 t-inv F
  0.090909  0.363636 -0.454545    0.00075131  48 t-inv F
  0.363636  0.272727  0.818182    0.00075131  48 t-inv F
 -0.363636 -0.272727 -0.818182    0.00075131  48 t-inv F
 -0.454545 -0.818182 -0.545455    0.00075131  48 t-inv F
  0.454545  0.818182  0.545455    0.00075131  48 t-inv F
  0.090909  0.545455 -0.272727    0.00075131  48 t-inv F
 -0.090909 -0.545455  0.272727    0.00075131  48 t-inv F
  0.272727 -0.545455 -0.090909    0.00075131  48 t-inv F
 -0.272727  0.545455  0.090909    0.00075131  48 t-inv F
 -0.818182 -0.272727 -0.363636    0.00075131  48 t-inv F
  0.818182  0.272727  0.363636    0.00075131  48 t-inv F
  0.545455  0.818182  0.454545    0.00075131  48 t-inv F
 -0.545455 -0.818182 -0.454545    0.00075131  48 t-inv F
 -0.545455 -0.454545 -0.818182    0.00075131  48 t-inv F
  0.545455  0.454545  0.818182    0.00075131  48 t-inv F
 -0.272727  0.090909  0.545455    0.00075131  48 t-inv F
  0.272727 -0.090909 -0.545455    0.00075131  48 t-inv F
  0.818182  0.363636  0.272727    0.00075131  48 t-inv F
 -0.818182 -0.363636 -0.272727    0.00075131  48 t-inv F
 -0.090909  0.272727 -0.545455    0.00075131  48 t-inv F
  0.090909 -0.272727  0.545455    0.00075131  48 t-inv F
 -0.363636 -0.818182 -0.272727    0.00075131  48 t-inv F
  0.363636  0.818182  0.272727    0.00075131  48 t-inv F
  0.454545  0.545455  0.818182    0.00075131  48 t-inv F
 -0.454545 -0.545455 -0.818182    0.00075131  48 t-inv F
 -0.818182 -0.545455 -0.454545    0.00075131  48 t-inv F
  0.818182  0.545455  0.454545    0.00075131  48 t-inv F
  0.545455 -0.272727  0.090909    0.00075131  48 t-inv F
 -0.545455  0.272727 -0.090909    0.00075131  48 t-inv F
  0.272727  0.818182  0.363636    0.00075131  48 t-inv F
 -0.272727 -0.818182 -0.363636    0.00075131  48 t-inv F
 -0.545455 -0.090909  0.272727    0.00075131  48 t-inv F
  0.545455  0.090909 -0.272727    0.00075131  48 t-inv F
 -0.272727 -0.363636 -0.818182    0.00075131  48 t-inv F
  0.272727  0.363636  0.818182    0.00075131  48 t-inv F
  0.818182  0.454545  0.545455    0.00075131  48 t-inv F
 -0.818182 -0.454545 -0.545455    0.00075131  48 t-inv F
  0.363636 -0.363636 -0.090909    0.00075131  49 t-inv F
  0.090909 -0.363636  0.363636    0.00075131  49 t-inv F
 -0.090909  0.363636 -0.363636    0.00075131  49 t-inv F
  0.363636  0.090909 -0.363636    0.00075131  49 t-inv F
 -0.363636 -0.090909  0.363636    0.00075131  49 t-inv F
  0.363636 -0.090909 -0.363636    0.00075131  49 t-inv F
 -0.363636  0.090909  0.363636    0.00075131  49 t-inv F
 -0.363636  0.363636 -0.090909    0.00075131  49 t-inv F
  0.363636 -0.363636  0.090909    0.00075131  49 t-inv F
 -0.090909 -0.363636  0.363636    0.00075131  49 t-inv F
  0.090909  0.363636 -0.363636    0.00075131  49 t-inv F
  0.363636  0.272727  0.727273    0.00075131  49 t-inv F
 -0.363636 -0.272727 -0.727273    0.00075131  49 t-inv F
 -0.363636 -0.727273 -0.454545    0.00075131  49 t-inv F
  0.363636  0.727273  0.454545    0.00075131  49 t-inv F
  0.090909  0.454545 -0.272727    0.00075131  49 t-inv F
[...]
     15       8.7133      0.00000
     16       9.8998      0.00000
     17      11.6788      0.00000
     18      12.7011      0.00000

 k-point    40 :      -0.4545    0.1818    0.0909
  band No.  band energies     occupation 
      1     -22.4528      2.00000
      2     -22.4397      2.00000
      3     -22.3543      2.00000
      4     -22.2884      2.00000
      5     -22.2741      2.00000
      6     -22.1614      2.00000
      7     -22.1344      2.00000
      8     -22.1205      2.00000
      9     -22.0201      2.00000
     10     -22.0082      2.00000
     11      -6.4069      2.00000
     12      -2.9036      2.00000
     13       2.0717      2.00000
     14       3.4213      2.00000
     15       8.6044      0.00000
     16       9.7965      0.00000
     17      11.6859      0.00000
     18      14.2157      0.00000

 k-point    41 :       0.3636    0.2727    0.0909
  band No.  band energies     occupation 
      1     -22.4375      2.00000
      2     -22.4334      2.00000
      3     -22.3891      2.00000
      4     -22.3013      2.00000
      5     -22.2558      2.00000
      6     -22.2012      2.00000
      7     -22.1098      2.00000
      8     -22.0754      2.00000
      9     -22.0341      2.00000
     10     -22.0234      2.00000
     11      -7.6252      2.00000
     12      -0.2221      2.00000
     13       2.4200      2.00000
     14       3.2729      2.00000
     15       7.9528      0.00000
     16       9.5837      0.00000
     17      11.8129      0.00000
     18      13.2418      0.00000

 k-point    42 :       0.4545    0.2727    0.0909
  band No.  band energies     occupation 
      1     -22.4501      2.00000
      2     -22.4406      2.00000
      3     -22.3667      2.00000
      4     -22.2854      2.00000
      5     -22.2421      2.00000
      6     -22.2121      2.00000
      7     -22.1273      2.00000
      8     -22.0992      2.00000
      9     -22.0214      2.00000
     10     -22.0105      2.00000
     11      -6.9202      2.00000
     12      -1.5219      2.00000
     13       1.6995      2.00000
     14       2.8913      2.00000
     15       8.3885      0.00000
     16      10.1384      0.00000
     17      11.3679      0.00000
     18      13.6968      0.00000

 k-point    43 :      -0.4545    0.2727    0.0909
  band No.  band energies     occupation 
      1     -22.4602      2.00000
      2     -22.4444      2.00000
      3     -22.3464      2.00000
      4     -22.2710      2.00000
      5     -22.2427      2.00000
      6     -22.2070      2.00000
      7     -22.1470      2.00000
      8     -22.1195      2.00000
      9     -22.0148      2.00000
     10     -21.9994      2.00000
     11      -6.1607      2.00000
     12      -2.6950      2.00000
     13       1.2116      2.00000
     14       2.6993      2.00000
     15       8.5262      0.00000
     16      10.8777      0.00000
     17      11.7825      0.00000
     18      13.6106      0.00000

 k-point    44 :      -0.3636    0.2727    0.0909
  band No.  band energies     occupation 
      1     -22.4632      2.00000
      2     -22.4465      2.00000
      3     -22.3364      2.00000
      4     -22.2669      2.00000
      5     -22.2472      2.00000
      6     -22.1943      2.00000
      7     -22.1605      2.00000
      8     -22.1283      2.00000
      9     -22.0113      2.00000
     10     -21.9962      2.00000
     11      -5.8688      2.00000
     12      -3.0871      2.00000
     13       0.9365      2.00000
     14       2.8066      2.00000
     15       8.7392      0.00000
     16      10.5902      0.00000
     17      13.2088      0.00000
     18      13.8793      0.00000

 k-point    45 :      -0.2727    0.2727    0.0909
  band No.  band energies     occupation 
      1     -22.4585      2.00000
      2     -22.4469      2.00000
      3     -22.3406      2.00000
      4     -22.2834      2.00000
      5     -22.2479      2.00000
      6     -22.1900      2.00000
      7     -22.1453      2.00000
      8     -22.1273      2.00000
      9     -22.0110      2.00000
     10     -22.0026      2.00000
     11      -6.4327      2.00000
     12      -2.2997      2.00000
     13       0.9523      2.00000
     14       3.1712      2.00000
     15       9.0971      0.00000
     16      10.4136      0.00000
     17      12.1887      0.00000
     18      13.4806      0.00000

 k-point    46 :      -0.1818    0.2727    0.0909
  band No.  band energies     occupation 
      1     -22.4468      2.00000
      2     -22.4442      2.00000
      3     -22.3582      2.00000
      4     -22.3001      2.00000
      5     -22.2602      2.00000
      6     -22.1820      2.00000
      7     -22.1204      2.00000
      8     -22.1138      2.00000
      9     -22.0180      2.00000
     10     -22.0138      2.00000
     11      -7.1992      2.00000
     12      -1.1322      2.00000
     13       1.4370      2.00000
     14       3.6857      2.00000
     15       9.4812      0.00000
     16       9.9276      0.00000
     17      11.2592      0.00000
     18      12.8270      0.00000

 k-point    47 :       0.4545    0.3636    0.0909
  band No.  band energies     occupation 
      1     -22.4451      2.00000
      2     -22.4441      2.00000
      3     -22.3721      2.00000
      4     -22.2661      2.00000
      5     -22.2529      2.00000
      6     -22.2088      2.00000
      7     -22.1426      2.00000
      8     -22.0898      2.00000
      9     -22.0164      2.00000
     10     -22.0144      2.00000
     11      -6.5321      2.00000
     12      -1.9300      2.00000
     13       1.8103      2.00000
     14       2.2835      2.00000
     15       7.5642      0.00000
     16       8.5849      0.00000
     17      13.3783      0.00000
     18      15.2835      0.00000

 k-point    48 :      -0.4545    0.3636    0.0909
  band No.  band energies     occupation 
      1     -22.4586      2.00000
      2     -22.4480      2.00000
      3     -22.3443      2.00000
      4     -22.2600      2.00000
      5     -22.2481      2.00000
      6     -22.1991      2.00000
      7     -22.1637      2.00000
      8     -22.1183      2.00000
      9     -22.0098      2.00000
     10     -21.9998      2.00000
     11      -5.7542      2.00000
     12      -2.9162      2.00000
     13       1.0728      2.00000
     14       2.0703      2.00000
     15       7.9878      0.00000
     16       9.5383      0.00000
     17      12.9041      0.00000
     18      15.4865      0.00000

 k-point    49 :      -0.3636    0.3636    0.0909
  band No.  band energies     occupation 
      1     -22.4670      2.00000
      2     -22.4500      2.00000
      3     -22.3272      2.00000
      4     -22.2461      2.00000
      5     -22.2334      2.00000
      6     -22.2105      2.00000
      7     -22.1827      2.00000
      8     -22.1342      2.00000
      9     -22.0068      2.00000
     10     -21.9911      2.00000
     11      -5.2343      2.00000
     12      -3.4872      2.00000
     13       0.4737      2.00000
     14       2.2108      2.00000
     15       8.2238      0.00000
     16      11.4471      0.00000
     17      12.4889      0.00000
     18      14.2416      0.00000

 k-point    50 :      -0.2727    0.3636    0.0909
  band No.  band energies     occupation 
      1     -22.4669      2.00000
      2     -22.4500      2.00000
      3     -22.3272      2.00000
      4     -22.2546      2.00000
      5     -22.2254      2.00000
      6     -22.2143      2.00000
      7     -22.1789      2.00000
      8     -22.1337      2.00000
      9     -22.0067      2.00000
     10     -21.9921      2.00000
     11      -5.6770      2.00000
     12      -3.0075      2.00000
     13       0.3529      2.00000
     14       2.6101      2.00000
     15       8.6203      0.00000
     16      11.9881      0.00000
     17      12.4855      0.00000
     18      13.6896      0.00000

 k-point    51 :      -0.4545    0.4545    0.0909
  band No.  band energies     occupation 
      1     -22.4502      2.00000
      2     -22.4502      2.00000
      3     -22.3422      2.00000
      4     -22.3014      2.00000
      5     -22.2251      2.00000
      6     -22.1826      2.00000
      7     -22.1623      2.00000
      8     -22.1209      2.00000
      9     -22.0065      2.00000
     10     -22.0065      2.00000
     11      -5.1768      2.00000
     12      -3.6146      2.00000
     13       1.5633      2.00000
     14       1.7124      2.00000
     15       7.5207      0.00000
     16       7.8566      0.00000
     17      15.1338      0.00000
     18      16.5591      0.00000

 k-point    52 :      -0.3636    0.4545    0.0909
  band No.  band energies     occupation 
      1     -22.4615      2.00000
      2     -22.4510      2.00000
      3     -22.3227      2.00000
      4     -22.2896      2.00000
      5     -22.2111      2.00000
      6     -22.2008      2.00000
      7     -22.1705      2.00000
      8     -22.1395      2.00000
      9     -22.0053      2.00000
     10     -21.9955      2.00000
     11      -4.6114      2.00000
     12      -4.1353      2.00000
     13       0.8392      2.00000
     14       1.8037      2.00000
     15       7.8477      0.00000
     16       9.3114      0.00000
     17      14.6144      0.00000
     18      14.7172      0.00000

 k-point    53 :      -0.4545    0.3636    0.1818
  band No.  band energies     occupation 
      1     -22.4571      2.00000
      2     -22.4517      2.00000
      3     -22.3399      2.00000
      4     -22.2689      2.00000
      5     -22.2284      2.00000
      6     -22.2223      2.00000
      7     -22.1493      2.00000
      8     -22.1247      2.00000
      9     -22.0066      2.00000
     10     -22.0028      2.00000
     11      -6.1844      2.00000
     12      -2.3926      2.00000
     13       0.9412      2.00000
     14       2.3518      2.00000
     15       9.5372      0.00000
     16      10.2351      0.00000
     17      10.8316      0.00000
     18      15.0867      0.00000

 k-point    54 :      -0.3636    0.3636    0.1818
  band No.  band energies     occupation 
      1     -22.4650      2.00000
      2     -22.4542      2.00000
      3     -22.3201      2.00000
      4     -22.2533      2.00000
      5     -22.2323      2.00000
      6     -22.2140      2.00000
      7     -22.1743      2.00000
      8     -22.1396      2.00000
      9     -22.0034      2.00000
     10     -21.9933      2.00000
     11      -5.4662      2.00000
     12      -3.2209      2.00000
     13       0.6083      2.00000
     14       1.9728      2.00000
     15       9.9851      0.00000
     16      10.3358      0.00000
     17      11.7807      0.00000
     18      13.9095      0.00000

 k-point    55 :      -0.3636    0.4545    0.1818
  band No.  band energies     occupation 
      1     -22.4611      2.00000
      2     -22.4586      2.00000
      3     -22.3114      2.00000
      4     -22.2730      2.00000
      5     -22.2301      2.00000
      6     -22.1890      2.00000
      7     -22.1826      2.00000
      8     -22.1477      2.00000
      9     -21.9987      2.00000
     10     -21.9963      2.00000
     11      -4.9779      2.00000
     12      -3.6805      2.00000
     13       0.8903      2.00000
     14       1.3557      2.00000
     15       9.4424      0.00000
     16       9.6820      0.00000
     17      12.3884      0.00000
     18      14.2242      0.00000

 k-point    56 :      -0.2727    0.4545    0.1818
  band No.  band energies     occupation 
      1     -22.4660      2.00000
      2     -22.4587      2.00000
      3     -22.3011      2.00000
      4     -22.2614      2.00000
      5     -22.2266      2.00000
      6     -22.2011      2.00000
      7     -22.1886      2.00000
      8     -22.1545      2.00000
      9     -21.9983      2.00000
     10     -21.9915      2.00000
     11      -4.7592      2.00000
     12      -3.8700      2.00000
     13       0.5811      2.00000
     14       1.3993      2.00000
     15       9.8549      0.00000
     16      11.5834      0.00000
     17      11.9258      0.00000
     18      12.0727      0.00000


--------------------------------------------------------------------------------------------------------


 soft charge-density along one line, spin component            1
         0         1         2         3         4         5         6         7         8         9
 total charge-density along one line
 
 pseudopotential strength for first ion, spin component:            1
-18.721   0.000  -0.000   0.000  -0.000   2.613  -0.000   0.000
  0.000 -18.721   0.000   0.000  -0.000  -0.000   2.613  -0.000
 -0.000   0.000 -18.719   0.000   0.000   0.000  -0.000   2.612
  0.000   0.000   0.000 -18.721   0.000  -0.000  -0.000  -0.000
 -0.000  -0.000   0.000   0.000 -18.719   0.000   0.000  -0.000
  2.613  -0.000   0.000  -0.000   0.000   2.673   0.000   0.000
 -0.000   2.613  -0.000  -0.000   0.000   0.000   2.673  -0.000
  0.000  -0.000   2.612  -0.000  -0.000   0.000  -0.000   2.673
 -0.000  -0.000  -0.000   2.613  -0.000   0.000   0.000  -0.000
  0.000   0.000  -0.000  -0.000   2.612   0.000   0.000   0.000
  0.000   0.000  -0.000   0.000  -0.000  -0.000  -0.000   0.000
  0.000   0.000  -0.000   0.000  -0.000  -0.000  -0.000   0.000
 -0.000  -0.000  -0.000   0.004  -0.000   0.000   0.000   0.000
  0.004  -0.000   0.000  -0.000   0.000  -0.002   0.000  -0.000
 -0.000   0.004  -0.000  -0.000   0.000   0.000  -0.002   0.000
 -0.000  -0.000  -0.000   0.007  -0.000   0.000   0.000   0.000
  0.007  -0.000   0.000  -0.000   0.000  -0.004   0.000  -0.000
 -0.000   0.007  -0.000  -0.000   0.000   0.000  -0.004   0.000
 total augmentation occupancy for first ion, spin component:            1
  1.997   0.000  -0.000   0.000  -0.000   0.005   0.000  -0.000   0.000  -0.000   0.000  -0.000  -0.000   0.083  -0.000   0.000
  0.000   1.997   0.000   0.000  -0.000   0.000   0.005   0.000   0.000  -0.000   0.000  -0.000  -0.000  -0.000   0.083   0.000
 -0.000   0.000   1.993   0.000   0.000  -0.000   0.000  -0.007   0.000  -0.000  -0.000   0.000  -0.000   0.000  -0.000   0.000
  0.000   0.000   0.000   1.997   0.000   0.000   0.000   0.000   0.005   0.000   0.000  -0.000   0.083  -0.000  -0.000  -0.028
 -0.000  -0.000   0.000   0.000   1.993  -0.000  -0.000   0.000   0.000  -0.007  -0.000   0.000  -0.000  -0.000   0.000   0.000
  0.005   0.000  -0.000   0.000  -0.000   0.056  -0.000   0.000  -0.000  -0.000   0.000  -0.000   0.000   0.291   0.000  -0.000
  0.000   0.005   0.000   0.000  -0.000  -0.000   0.056  -0.000  -0.000   0.000   0.000  -0.000  -0.000   0.000   0.291  -0.000
 -0.000   0.000  -0.007   0.000   0.000   0.000  -0.000   0.016  -0.000  -0.000  -0.000   0.000  -0.000   0.000  -0.000   0.000
  0.000   0.000   0.000   0.005   0.000  -0.000  -0.000  -0.000   0.056  -0.000   0.000  -0.000   0.291   0.000   0.000  -0.057
 -0.000  -0.000  -0.000   0.000  -0.007  -0.000   0.000  -0.000  -0.000   0.016  -0.000   0.000  -0.000  -0.000   0.000   0.000
  0.000   0.000  -0.000   0.000  -0.000   0.000   0.000  -0.000   0.000  -0.000   5.416  -2.127   0.000   0.000   0.000  -0.000
 -0.000  -0.000   0.000  -0.000   0.000  -0.000  -0.000   0.000  -0.000   0.000  -2.127   0.936  -0.000  -0.000  -0.000   0.000
 -0.000  -0.000  -0.000   0.083  -0.000   0.000  -0.000  -0.000   0.291  -0.000   0.000  -0.000   2.570   0.000   0.000  -0.506
  0.083  -0.000   0.000  -0.000  -0.000   0.291   0.000   0.000   0.000  -0.000   0.000  -0.000   0.000   2.570   0.000  -0.000
 -0.000   0.083  -0.000  -0.000   0.000   0.000   0.291  -0.000   0.000   0.000   0.000  -0.000   0.000   0.000   2.570  -0.000
  0.000   0.000   0.000  -0.028   0.000  -0.000  -0.000   0.000  -0.057   0.000  -0.000   0.000  -0.506  -0.000  -0.000   0.107
 -0.028   0.000  -0.000   0.000   0.000  -0.057  -0.000  -0.000  -0.000   0.000  -0.000   0.000  -0.000  -0.506  -0.000   0.000
  0.000  -0.028   0.000   0.000  -0.000  -0.000  -0.057   0.000  -0.000  -0.000  -0.000   0.000  -0.000  -0.000  -0.506   0.000


------------------------ aborting loop because EDIFF is reached ----------------------------------------


    FORLOC:  cpu time      0.0011: real time      0.0013
    FORHF :  cpu time    872.8989: real time    872.4570
    FORNL :  cpu time      0.5503: real time      0.5499
    FORCOR:  cpu time      0.2103: real time      0.2105
    OFIELD:  cpu time      0.0009: real time      0.0009

 VOLUME and BASIS-vectors are now :
 -----------------------------------------------------------------------------
  energy-cutoff  :      450.00
  volume of cell :       40.89
      direct lattice vectors                 reciprocal lattice vectors
     0.000000000  2.734329408  2.734329408    -0.182860192  0.182860192  0.182860192
     2.734329408  0.000000000  2.734329408     0.182860192 -0.182860192  0.182860192
     2.734329408  2.734329408  0.000000000     0.182860192  0.182860192 -0.182860192

  length of vectors
     3.866925732  3.866925732  3.866925732     0.316723143  0.316723143  0.316723143


 FORCES acting on ions:
    Electron-Ion                     Ewald-Force                    Non-Local-Force
 -----------------------------------------------------------------------------------------------
   -.191E-04 -.702E-05 -.125E-04   0.841E-14 0.701E-14 -.172E-12   -.694E-17 0.625E-16 0.382E-16
   0.191E-04 0.701E-05 0.125E-04   -.714E-14 -.944E-14 0.169E-12   0.208E-16 -.798E-16 -.763E-16
 -----------------------------------------------------------------------------------------------
   0.280E-07 0.261E-07 0.373E-07   0.127E-14 -.243E-14 -.285E-14   0.139E-16 -.173E-16 -.382E-16
 
 
 POSITION                                       TOTAL-FORCE (eV/Angst)
 -----------------------------------------------------------------------------------
      4.78508      4.78508      4.78508         0.000000     -0.000000      0.000000
      0.68358      0.68358      0.68358        -0.000000      0.000000     -0.000000
 -----------------------------------------------------------------------------------
    total drift:                                0.000000      0.000000      0.000000


--------------------------------------------------------------------------------------------------------



  FREE ENERGIE OF THE ION-ELECTRON SYSTEM (eV)
  ---------------------------------------------------
  free  energy   TOTEN  =       -10.56830924 eV

  energy  without entropy=      -10.56830924  energy(sigma->0) =      -10.56830924
 


--------------------------------------------------------------------------------------------------------


    POTLOK:  cpu time      0.2253: real time      0.2251


--------------------------------------------------------------------------------------------------------


 writing wavefunctions
     LOOP+:  cpu time  17974.6339: real time  17967.2235
    4ORBIT:  cpu time      0.0000: real time      0.0004

 total amount of memory used by VASP MPI-rank0   128723. kBytes
=======================================================================

   base      :      30000. kBytes
   nonl-proj :       7326. kBytes
   fftplans  :      26164. kBytes
   grid      :       9520. kBytes
   one-center:         31. kBytes
   HF        :         64. kBytes
   nonlr-proj:       1585. kBytes
   wavefun   :      45528. kBytes
   fock_wrk  :       8505. kBytes
 
  
  
 General timing and accounting informations for this job:
 ========================================================
  
                  Total CPU time used (sec):    17983.809
                            User time (sec):    17977.340
                          System time (sec):        6.469
                         Elapsed time (sec):    17988.472
  
                   Maximum memory used (kb):     2177864.
                   Average memory used (kb):          N/A
  
                          Minor page faults:      3126375
                          Major page faults:         3120
                 Voluntary context switches:       539149
