       N       E                     dE             d eps       ncg     rms          rms(c)
DAV:   1     0.613292861652E+04    0.61329E+04   -0.19597E+05  6332   0.316E+03
DAV:   2     0.119147316606E+04   -0.49415E+04   -0.47965E+04  6492   0.804E+02
DAV:   3    -0.158639987049E+02   -0.12073E+04   -0.11548E+04  6548   0.248E+02
DAV:   4    -0.159638739556E+03   -0.14377E+03   -0.14091E+03  6896   0.961E+01
DAV:   5    -0.166859028993E+03   -0.72203E+01   -0.71644E+01  6280   0.240E+01    0.151E+01
DAV:   6    -0.164474284477E+03    0.23847E+01   -0.58237E+00  6408   0.214E+01    0.854E+00
DAV:   7    -0.170851690845E+03   -0.63774E+01   -0.37980E+01  8225   0.794E+01    0.802E+00
DAV:   8    -0.163035641112E+03    0.78160E+01   -0.25988E+01  8064   0.180E+01    0.166E+00
DAV:   9    -0.163267097765E+03   -0.23146E+00   -0.38861E+00  6488   0.788E+00    0.152E+00
DAV:  10    -0.163298605252E+03   -0.31507E-01   -0.65490E-01  6736   0.310E+00    0.123E+00
DAV:  11    -0.163289033552E+03    0.95717E-02   -0.60636E-02  6688   0.299E+00    0.819E-01
DAV:  12    -0.163281076650E+03    0.79569E-02   -0.43632E-02  6152   0.199E+00    0.240E-01
DAV:  13    -0.163284086130E+03   -0.30095E-02   -0.37438E-02  6352   0.147E+00    0.247E-01
DAV:  14    -0.163284051926E+03    0.34204E-04   -0.11710E-02  6368   0.963E-01    0.119E-01
DAV:  15    -0.163283663762E+03    0.38816E-03   -0.46496E-03  6496   0.485E-01    0.817E-02
DAV:  16    -0.163283362114E+03    0.30165E-03   -0.18123E-03  6456   0.519E-01    0.413E-02
DAV:  17    -0.163283546804E+03   -0.18469E-03   -0.90846E-04  7064   0.219E-01    0.372E-02
DAV:  18    -0.163284083297E+03   -0.53649E-03   -0.67100E-04  6200   0.197E-01    0.246E-02
DAV:  19    -0.163284446468E+03   -0.36317E-03   -0.59506E-04  5976   0.206E-01    0.137E-02
DAV:  20    -0.163284678948E+03   -0.23248E-03   -0.13415E-04  6608   0.132E-01    0.140E-02
DAV:  21    -0.163285716910E+03   -0.10380E-02   -0.92819E-04  7776   0.741E-01    0.585E-02
DAV:  22    -0.163287410344E+03   -0.16934E-02   -0.62539E-04  6784   0.555E-01    0.100E-01
DAV:  23    -0.163286613963E+03    0.79638E-03   -0.35560E-04  6368   0.360E-01    0.750E-02
DAV:  24    -0.163286326371E+03    0.28759E-03   -0.41801E-05  6720   0.121E-01    0.654E-02
DAV:  25    -0.163285869376E+03    0.45699E-03   -0.85051E-05  6960   0.197E-01    0.490E-02
DAV:  26    -0.163285474393E+03    0.39498E-03   -0.12170E-04  4752   0.267E-01    0.292E-02
DAV:  27    -0.163285244053E+03    0.23034E-03   -0.25234E-04  5336   0.377E-01    0.876E-03
DAV:  28    -0.163285538089E+03   -0.29404E-03   -0.42893E-04  6656   0.474E-01    0.318E-02
DAV:  29    -0.163285656066E+03   -0.11798E-03   -0.31289E-04  6976   0.801E-02    0.378E-02
DAV:  30    -0.163285616429E+03    0.39637E-04   -0.37612E-05  6088   0.502E-02    0.359E-02
DAV:  31    -0.163285625862E+03   -0.94335E-05   -0.11650E-05  5616   0.181E-02    0.354E-02
DAV:  32    -0.163285653312E+03   -0.27449E-04   -0.73067E-07  3768   0.120E-02    0.361E-02
DAV:  33    -0.163285499495E+03    0.15382E-03   -0.86932E-05  5696   0.242E-01    0.170E-02
DAV:  34    -0.163285476664E+03    0.22831E-04   -0.36248E-05  5272   0.611E-02    0.104E-02
DAV:  35    -0.163285479498E+03   -0.28343E-05   -0.19078E-05  5888   0.137E-02    0.105E-02
DAV:  36    -0.163285479210E+03    0.28814E-06   -0.11513E-06  3440   0.626E-03
   1 F= -.16328548E+03 E0= -.16327323E+03  d E =-.163285E+03
       N       E                     dE             d eps       ncg     rms          rms(c)
DAV:   1    -0.163306037244E+03   -0.20558E-01   -0.88681E-01  6367   0.209E+00    0.877E-02
DAV:   2    -0.163307489182E+03   -0.14519E-02   -0.14878E-02  7576   0.627E-01    0.568E-02
DAV:   3    -0.163307664841E+03   -0.17566E-03   -0.35151E-03  6264   0.722E-01    0.406E-02
DAV:   4    -0.163307678466E+03   -0.13624E-04   -0.81879E-04  6424   0.310E-01    0.224E-02
DAV:   5    -0.163307754526E+03   -0.76060E-04   -0.73881E-04  6264   0.152E-01    0.124E-02
DAV:   6    -0.163307768477E+03   -0.13951E-04   -0.15449E-04  6576   0.102E-01    0.668E-03
DAV:   7    -0.163307776360E+03   -0.78827E-05   -0.60765E-05  7504   0.372E-02    0.417E-03
DAV:   8    -0.163307779676E+03   -0.33159E-05   -0.72565E-06  5184   0.204E-02    0.208E-03
DAV:   9    -0.163307782316E+03   -0.26406E-05   -0.18099E-06  4280   0.124E-02    0.131E-03
DAV:  10    -0.163307783795E+03   -0.14786E-05   -0.66092E-07  3648   0.925E-03    0.105E-03
DAV:  11    -0.163307785454E+03   -0.16597E-05   -0.33511E-07  3680   0.382E-03    0.960E-04
DAV:  12    -0.163307786773E+03   -0.13181E-05   -0.28144E-07  3576   0.333E-03    0.927E-04
DAV:  13    -0.163307787677E+03   -0.90481E-06   -0.14265E-07  3632   0.279E-03
   2 F= -.16330779E+03 E0= -.16329565E+03  d E =-.223085E-01
       N       E                     dE             d eps       ncg     rms          rms(c)
DAV:   1    -0.163348766795E+03   -0.40980E-01   -0.76725E+00  6348   0.607E+00    0.229E-01
DAV:   2    -0.163362635778E+03   -0.13869E-01   -0.14503E-01  7440   0.131E+00    0.130E-01
DAV:   3    -0.163363564012E+03   -0.92823E-03   -0.13602E-02  6248   0.120E+00    0.937E-02
DAV:   4    -0.163363522437E+03    0.41575E-04   -0.35623E-03  6400   0.866E-01    0.550E-02
DAV:   5    -0.163363718617E+03   -0.19618E-03   -0.27418E-03  6832   0.410E-01    0.253E-02
DAV:   6    -0.163363803408E+03   -0.84791E-04   -0.96316E-04  6120   0.213E-01    0.155E-02
DAV:   7    -0.163363825409E+03   -0.22001E-04   -0.26907E-04  7192   0.119E-01    0.113E-02
DAV:   8    -0.163363834073E+03   -0.86641E-05   -0.75027E-05  6824   0.523E-02    0.761E-03
DAV:   9    -0.163363838619E+03   -0.45464E-05   -0.15812E-05  5488   0.461E-02    0.251E-03
DAV:  10    -0.163363842143E+03   -0.35233E-05   -0.89061E-06  5376   0.198E-02    0.171E-03
DAV:  11    -0.163363845427E+03   -0.32848E-05   -0.28736E-06  4376   0.103E-02    0.137E-03
DAV:  12    -0.163363849725E+03   -0.42978E-05   -0.75038E-07  3752   0.904E-03    0.113E-03
DAV:  13    -0.163363851239E+03   -0.15139E-05   -0.55417E-07  3776   0.478E-03    0.109E-03
DAV:  14    -0.163363851895E+03   -0.65580E-06   -0.11172E-07  3528   0.290E-03
   3 F= -.16336385E+03 E0= -.16335225E+03  d E =-.560642E-01
       N       E                     dE             d eps       ncg     rms          rms(c)
DAV:   1    -0.163380171930E+03   -0.16321E-01   -0.76997E-01  6276   0.175E+00    0.605E-02
DAV:   2    -0.163381392399E+03   -0.12205E-02   -0.12813E-02  7408   0.364E-01    0.326E-02
DAV:   3    -0.163381497058E+03   -0.10466E-03   -0.15402E-03  6232   0.438E-01    0.239E-02
DAV:   4    -0.163381494684E+03    0.23742E-05   -0.37532E-04  6384   0.228E-01    0.124E-02
DAV:   5    -0.163381520582E+03   -0.25898E-04   -0.27132E-04  6840   0.830E-02    0.796E-03
DAV:   6    -0.163381524939E+03   -0.43569E-05   -0.49054E-05  6272   0.638E-02    0.372E-03
DAV:   7    -0.163381526379E+03   -0.14396E-05   -0.16583E-05  5840   0.290E-02    0.234E-03
DAV:   8    -0.163381527056E+03   -0.67698E-06   -0.47483E-06  4728   0.125E-02
   4 F= -.16338153E+03 E0= -.16337014E+03  d E =-.176752E-01
       N       E                     dE             d eps       ncg     rms          rms(c)
DAV:   1    -0.163419932949E+03   -0.38407E-01   -0.62429E+00  6240   0.488E+00    0.168E-01
DAV:   2    -0.163430260780E+03   -0.10328E-01   -0.10824E-01  7376   0.105E+00    0.910E-02
DAV:   3    -0.163431287703E+03   -0.10269E-02   -0.14362E-02  6248   0.114E+00    0.651E-02
DAV:   4    -0.163431347757E+03   -0.60054E-04   -0.33780E-03  6487   0.629E-01    0.359E-02
DAV:   5    -0.163431547457E+03   -0.19970E-03   -0.21773E-03  6736   0.245E-01    0.235E-02
DAV:   6    -0.163431578758E+03   -0.31300E-04   -0.36497E-04  6168   0.183E-01    0.986E-03
DAV:   7    -0.163431587833E+03   -0.90752E-05   -0.11206E-04  7040   0.863E-02    0.518E-03
DAV:   8    -0.163431593573E+03   -0.57405E-05   -0.47339E-05  5720   0.399E-02    0.395E-03
DAV:   9    -0.163431595707E+03   -0.21333E-05   -0.10390E-05  5232   0.369E-02    0.179E-03
DAV:  10    -0.163431597975E+03   -0.22680E-05   -0.68828E-06  6304   0.117E-02    0.153E-03
DAV:  11    -0.163431599126E+03   -0.11509E-05   -0.10758E-06  3608   0.616E-03    0.128E-03
DAV:  12    -0.163431601115E+03   -0.19894E-05   -0.28971E-07  3663   0.992E-03    0.998E-04
DAV:  13    -0.163431601741E+03   -0.62652E-06   -0.18852E-07  3592   0.338E-03
   5 F= -.16343160E+03 E0= -.16342085E+03  d E =-.500747E-01
       N       E                     dE             d eps       ncg     rms          rms(c)
DAV:   1    -0.163398710607E+03    0.32891E-01   -0.21309E+00  6233   0.286E+00    0.992E-02
DAV:   2    -0.163402176281E+03   -0.34657E-02   -0.36175E-02  7566   0.570E-01    0.529E-02
DAV:   3    -0.163402369658E+03   -0.19338E-03   -0.32951E-03  6215   0.660E-01    0.392E-02
DAV:   4    -0.163402339682E+03    0.29975E-04   -0.70785E-04  6309   0.366E-01    0.207E-02
DAV:   5    -0.163402388805E+03   -0.49123E-04   -0.56594E-04  7048   0.139E-01    0.125E-02
DAV:   6    -0.163402403261E+03   -0.14456E-04   -0.13281E-04  6000   0.817E-02    0.626E-03
DAV:   7    -0.163402406229E+03   -0.29679E-05   -0.30914E-05  5960   0.514E-02    0.352E-03
DAV:   8    -0.163402408220E+03   -0.19910E-05   -0.16331E-05  5790   0.228E-02    0.274E-03
DAV:   9    -0.163402409026E+03   -0.80639E-06   -0.28674E-06  4519   0.183E-02
   6 F= -.16340241E+03 E0= -.16339128E+03  d E =0.291927E-01
       N       E                     dE             d eps       ncg     rms          rms(c)
DAV:   1    -0.163438783542E+03   -0.36375E-01   -0.53636E+00  6241   0.447E+00    0.154E-01
DAV:   2    -0.163447614972E+03   -0.88314E-02   -0.92397E-02  7294   0.942E-01    0.826E-02
DAV:   3    -0.163448518853E+03   -0.90388E-03   -0.12421E-02  6247   0.102E+00    0.586E-02
DAV:   4    -0.163448580046E+03   -0.61193E-04   -0.28036E-03  6565   0.572E-01    0.331E-02
DAV:   5    -0.163448740013E+03   -0.15997E-03   -0.17628E-03  6672   0.220E-01    0.220E-02
DAV:   6    -0.163448766413E+03   -0.26399E-04   -0.30116E-04  6175   0.155E-01    0.929E-03
DAV:   7    -0.163448772660E+03   -0.62474E-05   -0.83181E-05  6880   0.826E-02    0.447E-03
DAV:   8    -0.163448777431E+03   -0.47710E-05   -0.44496E-05  5704   0.378E-02    0.356E-03
DAV:   9    -0.163448778703E+03   -0.12722E-05   -0.92433E-06  4960   0.323E-02    0.174E-03
DAV:  10    -0.163448780067E+03   -0.13641E-05   -0.53735E-06  5600   0.108E-02    0.135E-03
DAV:  11    -0.163448780738E+03   -0.67033E-06   -0.96709E-07  3624   0.754E-03
   7 F= -.16344878E+03 E0= -.16343825E+03  d E =-.463717E-01
       N       E                     dE             d eps       ncg     rms          rms(c)
DAV:   1    -0.163438754025E+03    0.10026E-01   -0.23286E-01  6226   0.969E-01    0.331E-02
DAV:   2    -0.163439139256E+03   -0.38523E-03   -0.40076E-03  7688   0.189E-01    0.176E-02
DAV:   3    -0.163439158233E+03   -0.18977E-04   -0.32778E-04  6215   0.207E-01    0.128E-02
DAV:   4    -0.163439155635E+03    0.25981E-05   -0.66211E-05  6318   0.119E-01    0.695E-03
DAV:   5    -0.163439160411E+03   -0.47754E-05   -0.55478E-05  7352   0.446E-02    0.415E-03
DAV:   6    -0.163439162239E+03   -0.18288E-05   -0.13121E-05  5902   0.256E-02    0.231E-03
DAV:   7    -0.163439162788E+03   -0.54829E-06   -0.28580E-06  4263   0.174E-02
   8 F= -.16343916E+03 E0= -.16342850E+03  d E =0.961795E-02
       N       E                     dE             d eps       ncg     rms          rms(c)
DAV:   1    -0.163484818412E+03   -0.45656E-01   -0.22293E+01  6240   0.931E+00    0.318E-01
DAV:   2    -0.163526158228E+03   -0.41340E-01   -0.43145E-01  7096   0.203E+00    0.175E-01
DAV:   3    -0.163531086098E+03   -0.49279E-02   -0.63574E-02  6248   0.203E+00    0.116E-01
DAV:   4    -0.163531765055E+03   -0.67896E-03   -0.14645E-02  6672   0.120E+00    0.713E-02
DAV:   5    -0.163532520080E+03   -0.75502E-03   -0.85116E-03  7088   0.516E-01    0.563E-02
DAV:   6    -0.163532630958E+03   -0.11088E-03   -0.12716E-03  6191   0.293E-01    0.226E-02
DAV:   7    -0.163532655129E+03   -0.24171E-04   -0.34494E-04  6864   0.193E-01    0.938E-03
DAV:   8    -0.163532674714E+03   -0.19585E-04   -0.20234E-04  6088   0.105E-01    0.715E-03
DAV:   9    -0.163532681746E+03   -0.70325E-05   -0.60078E-05  5952   0.646E-02    0.420E-03
DAV:  10    -0.163532688476E+03   -0.67304E-05   -0.34921E-05  7200   0.254E-02    0.317E-03
DAV:  11    -0.163532690948E+03   -0.24711E-05   -0.19759E-06  4160   0.144E-02    0.183E-03
DAV:  12    -0.163532694069E+03   -0.31214E-05   -0.58836E-07  3710   0.795E-03    0.124E-03
DAV:  13    -0.163532696523E+03   -0.24544E-05   -0.41208E-07  3720   0.615E-03    0.105E-03
DAV:  14    -0.163532698965E+03   -0.24418E-05   -0.28653E-07  3709   0.492E-03    0.102E-03
DAV:  15    -0.163532700591E+03   -0.16253E-05   -0.23822E-07  3736   0.360E-03    0.984E-04
DAV:  16    -0.163532701654E+03   -0.10637E-05   -0.12441E-07  3654   0.277E-03    0.913E-04
DAV:  17    -0.163532702168E+03   -0.51371E-06   -0.68539E-08  3696   0.194E-03
   9 F= -.16353270E+03 E0= -.16352313E+03  d E =-.935394E-01
       N       E                     dE             d eps       ncg     rms          rms(c)
DAV:   1    -0.163447917514E+03    0.84784E-01   -0.10888E+01  6216   0.651E+00    0.224E-01
DAV:   2    -0.163466727731E+03   -0.18810E-01   -0.19580E-01  7544   0.124E+00    0.117E-01
DAV:   3    -0.163467413655E+03   -0.68592E-03   -0.12575E-02  6207   0.134E+00    0.852E-02
DAV:   4    -0.163467348150E+03    0.65505E-04   -0.36255E-03  6406   0.755E-01    0.482E-02
DAV:   5    -0.163467520009E+03   -0.17186E-03   -0.21171E-03  7136   0.324E-01    0.272E-02
DAV:   6    -0.163467586158E+03   -0.66149E-04   -0.65123E-04  6285   0.164E-01    0.129E-02
DAV:   7    -0.163467599081E+03   -0.12923E-04   -0.12866E-04  6824   0.947E-02    0.813E-03
DAV:   8    -0.163467606183E+03   -0.71016E-05   -0.43428E-05  6200   0.532E-02    0.541E-03
DAV:   9    -0.163467612611E+03   -0.64278E-05   -0.16149E-05  5351   0.413E-02    0.173E-03
DAV:  10    -0.163467616390E+03   -0.37793E-05   -0.13138E-05  6440   0.188E-02    0.171E-03
DAV:  11    -0.163467617710E+03   -0.13200E-05   -0.14898E-06  3824   0.785E-03    0.142E-03
DAV:  12    -0.163467620633E+03   -0.29232E-05   -0.43508E-07  3702   0.611E-03    0.109E-03
DAV:  13    -0.163467623671E+03   -0.30380E-05   -0.49970E-07  3774   0.346E-03    0.983E-04
DAV:  14    -0.163467624568E+03   -0.89683E-06   -0.18327E-07  3768   0.339E-03
  10 F= -.16346762E+03 E0= -.16345731E+03  d E =0.650776E-01
       N       E                     dE             d eps       ncg     rms          rms(c)
DAV:   1    -0.163478308602E+03   -0.10685E-01   -0.32374E-01  6339   0.967E-01    0.347E-02
DAV:   2    -0.163478850603E+03   -0.54200E-03   -0.56146E-03  7791   0.190E-01    0.177E-02
DAV:   3    -0.163478877859E+03   -0.27256E-04   -0.42381E-04  6117   0.217E-01    0.131E-02
DAV:   4    -0.163478876266E+03    0.15936E-05   -0.82612E-05  6852   0.121E-01    0.795E-03
DAV:   5    -0.163478880635E+03   -0.43698E-05   -0.47996E-05  6712   0.413E-02    0.456E-03
DAV:   6    -0.163478882109E+03   -0.14741E-05   -0.11838E-05  6056   0.291E-02    0.209E-03
DAV:   7    -0.163478882443E+03   -0.33347E-06   -0.26128E-06  4512   0.168E-02
  11 F= -.16347888E+03 E0= -.16346870E+03  d E =-.112579E-01
       N       E                     dE             d eps       ncg     rms          rms(c)
DAV:   1    -0.163445576566E+03    0.33306E-01   -0.22744E+00  6313   0.248E+00    0.915E-02
DAV:   2    -0.163449331488E+03   -0.37549E-02   -0.39065E-02  7807   0.479E-01    0.461E-02
DAV:   3    -0.163449475326E+03   -0.14384E-03   -0.25036E-03  6157   0.581E-01    0.343E-02
DAV:   4    -0.163449457304E+03    0.18021E-04   -0.62336E-04  6751   0.306E-01    0.193E-02
DAV:   5    -0.163449494041E+03   -0.36737E-04   -0.42212E-04  6696   0.106E-01    0.115E-02
DAV:   6    -0.163449501946E+03   -0.79056E-05   -0.78712E-05  6412   0.701E-02    0.486E-03
DAV:   7    -0.163449503339E+03   -0.13931E-05   -0.18036E-05  5952   0.390E-02    0.259E-03
DAV:   8    -0.163449504206E+03   -0.86674E-06   -0.61986E-06  5048   0.172E-02
  12 F= -.16344950E+03 E0= -.16343898E+03  d E =0.293782E-01
       N       E                     dE             d eps       ncg     rms          rms(c)
DAV:   1    -0.163187678681E+03    0.26182E+00   -0.54313E+01  6257   0.125E+01    0.486E-01
DAV:   2    -0.163307360687E+03   -0.11968E+00   -0.12329E+00  7367   0.276E+00    0.245E-01
DAV:   3    -0.163313302130E+03   -0.59414E-02   -0.10232E-01  6304   0.351E+00    0.192E-01
DAV:   4    -0.163314400130E+03   -0.10980E-02   -0.38661E-02  6421   0.167E+00    0.110E-01
DAV:   5    -0.163315740960E+03   -0.13408E-02   -0.14035E-02  6198   0.690E-01    0.786E-02
DAV:   6    -0.163316052394E+03   -0.31143E-03   -0.32785E-03  6335   0.478E-01    0.312E-02
DAV:   7    -0.163316209782E+03   -0.15739E-03   -0.15758E-03  7224   0.214E-01    0.143E-02
DAV:   8    -0.163316240845E+03   -0.31064E-04   -0.20396E-04  6232   0.115E-01    0.845E-03
DAV:   9    -0.163316265261E+03   -0.24415E-04   -0.58218E-05  6168   0.646E-02    0.483E-03
DAV:  10    -0.163316289413E+03   -0.24153E-04   -0.24934E-05  5728   0.406E-02    0.276E-03
DAV:  11    -0.163316303416E+03   -0.14003E-04   -0.10284E-05  5399   0.251E-02    0.197E-03
DAV:  12    -0.163316314605E+03   -0.11188E-04   -0.65854E-06  5319   0.161E-02    0.175E-03
DAV:  13    -0.163316325828E+03   -0.11223E-04   -0.21250E-06  4183   0.122E-02    0.133E-03
DAV:  14    -0.163316334419E+03   -0.85911E-05   -0.14132E-06  3879   0.558E-03    0.119E-03
DAV:  15    -0.163316338876E+03   -0.44574E-05   -0.63839E-07  3799   0.702E-03    0.102E-03
DAV:  16    -0.163316341614E+03   -0.27380E-05   -0.57637E-07  3847   0.332E-03    0.977E-04
DAV:  17    -0.163316342419E+03   -0.80466E-06   -0.18936E-07  3776   0.404E-03
  13 F= -.16331634E+03 E0= -.16330434E+03  d E =0.133162E+00
       N       E                     dE             d eps       ncg     rms          rms(c)
DAV:   1    -0.162479043541E+03    0.83730E+00   -0.23674E+02  6425   0.285E+01    0.985E-01
DAV:   2    -0.163063063972E+03   -0.58402E+00   -0.59794E+00  7152   0.616E+00    0.554E-01
DAV:   3    -0.163093485429E+03   -0.30421E-01   -0.61423E-01  6344   0.859E+00    0.459E-01
DAV:   4    -0.163098221917E+03   -0.47365E-02   -0.25293E-01  6533   0.360E+00    0.223E-01
DAV:   5    -0.163105968174E+03   -0.77463E-02   -0.79370E-02  6407   0.141E+00    0.173E-01
DAV:   6    -0.163106991357E+03   -0.10232E-02   -0.11329E-02  6783   0.924E-01    0.907E-02
DAV:   7    -0.163107305351E+03   -0.31399E-03   -0.31592E-03  6568   0.483E-01    0.248E-02
DAV:   8    -0.163107463237E+03   -0.15789E-03   -0.15246E-03  6432   0.293E-01    0.208E-02
DAV:   9    -0.163107520474E+03   -0.57237E-04   -0.45065E-04  6576   0.160E-01    0.123E-02
DAV:  10    -0.163107588070E+03   -0.67597E-04   -0.22593E-04  7600   0.859E-02    0.825E-03
DAV:  11    -0.163107627578E+03   -0.39508E-04   -0.51447E-05  5960   0.530E-02    0.385E-03
DAV:  12    -0.163107654478E+03   -0.26899E-04   -0.16026E-05  5752   0.401E-02    0.240E-03
DAV:  13    -0.163107673917E+03   -0.19440E-04   -0.13902E-05  5632   0.143E-02    0.223E-03
DAV:  14    -0.163107693608E+03   -0.19691E-04   -0.28091E-06  3928   0.219E-02    0.154E-03
DAV:  15    -0.163107706635E+03   -0.13027E-04   -0.23886E-06  3968   0.106E-02    0.129E-03
DAV:  16    -0.163107710162E+03   -0.35266E-05   -0.96408E-07  3920   0.658E-03    0.109E-03
DAV:  17    -0.163107712366E+03   -0.22043E-05   -0.47654E-07  3752   0.510E-03    0.102E-03
DAV:  18    -0.163107713768E+03   -0.14021E-05   -0.19376E-07  3784   0.368E-03    0.935E-04
DAV:  19    -0.163107715348E+03   -0.15801E-05   -0.21648E-07  3711   0.916E-03    0.114E-03
DAV:  20    -0.163107715932E+03   -0.58372E-06   -0.92800E-08  3744   0.448E-03
  14 F= -.16310772E+03 E0= -.16309550E+03  d E =0.208626E+00
       N       E                     dE             d eps       ncg     rms          rms(c)
DAV:   1    -0.163109473055E+03   -0.17577E-02   -0.21458E-01  6231   0.101E+00    0.364E-02
DAV:   2    -0.163109797269E+03   -0.32421E-03   -0.34936E-03  7192   0.244E-01    0.199E-02
DAV:   3    -0.163109834535E+03   -0.37267E-04   -0.44265E-04  6240   0.253E-01    0.142E-02
DAV:   4    -0.163109832122E+03    0.24130E-05   -0.11556E-04  6352   0.172E-01    0.810E-03
DAV:   5    -0.163109839708E+03   -0.75861E-05   -0.10315E-04  7504   0.665E-02    0.519E-03
DAV:   6    -0.163109842626E+03   -0.29177E-05   -0.30598E-05  5903   0.281E-02    0.323E-03
DAV:   7    -0.163109843082E+03   -0.45584E-06   -0.53055E-06  4600   0.219E-02
  15 F= -.16310984E+03 E0= -.16309755E+03  d E =-.212715E-02
       N       E                     dE             d eps       ncg     rms          rms(c)
DAV:   1    -0.163095587628E+03    0.14255E-01   -0.19306E+01  6170   0.986E+00    0.361E-01
DAV:   2    -0.163123089844E+03   -0.27502E-01   -0.29648E-01  7271   0.271E+00    0.214E-01
DAV:   3    -0.163128516297E+03   -0.54265E-02   -0.69013E-02  6254   0.285E+00    0.160E-01
DAV:   4    -0.163128305768E+03    0.21053E-03   -0.21013E-02  6414   0.179E+00    0.763E-02
DAV:   5    -0.163129921757E+03   -0.16160E-02   -0.17676E-02  6680   0.703E-01    0.627E-02
DAV:   6    -0.163130242316E+03   -0.32056E-03   -0.36757E-03  6576   0.465E-01    0.397E-02
DAV:   7    -0.163130323869E+03   -0.81553E-04   -0.90559E-04  6879   0.256E-01    0.167E-02
DAV:   8    -0.163130372950E+03   -0.49081E-04   -0.51678E-04  6871   0.132E-01    0.775E-03
DAV:   9    -0.163130382605E+03   -0.96559E-05   -0.83055E-05  6096   0.757E-02    0.554E-03
DAV:  10    -0.163130389060E+03   -0.64541E-05   -0.27841E-05  5904   0.422E-02    0.354E-03
DAV:  11    -0.163130395110E+03   -0.60507E-05   -0.10987E-05  4880   0.203E-02    0.147E-03
DAV:  12    -0.163130397027E+03   -0.19165E-05   -0.44914E-06  4840   0.141E-02    0.124E-03
DAV:  13    -0.163130398872E+03   -0.18452E-05   -0.77335E-07  3671   0.886E-03    0.107E-03
DAV:  14    -0.163130401197E+03   -0.23250E-05   -0.32947E-07  3632   0.374E-03    0.942E-04
DAV:  15    -0.163130402800E+03   -0.16026E-05   -0.29292E-07  3664   0.260E-03    0.926E-04
DAV:  16    -0.163130403581E+03   -0.78093E-06   -0.10368E-07  3608   0.279E-03
  16 F= -.16313040E+03 E0= -.16311770E+03  d E =-.205605E-01
       N       E                     dE             d eps       ncg     rms          rms(c)
DAV:   1    -0.163136462094E+03   -0.60593E-02   -0.24234E+00  6164   0.364E+00    0.138E-01
DAV:   2    -0.163139784596E+03   -0.33225E-02   -0.34753E-02  7591   0.104E+00    0.843E-02
DAV:   3    -0.163140255183E+03   -0.47059E-03   -0.79253E-03  6222   0.113E+00    0.633E-02
DAV:   4    -0.163140258545E+03   -0.33618E-05   -0.30309E-03  6502   0.596E-01    0.277E-02
DAV:   5    -0.163140459202E+03   -0.20066E-03   -0.21211E-03  6224   0.245E-01    0.199E-02
DAV:   6    -0.163140495746E+03   -0.36544E-04   -0.43836E-04  6472   0.163E-01    0.119E-02
DAV:   7    -0.163140507409E+03   -0.11663E-04   -0.12805E-04  6920   0.788E-02    0.549E-03
DAV:   8    -0.163140511808E+03   -0.43987E-05   -0.43550E-05  6000   0.470E-02    0.297E-03
DAV:   9    -0.163140512903E+03   -0.10954E-05   -0.97831E-06  4944   0.323E-02    0.182E-03
DAV:  10    -0.163140513938E+03   -0.10344E-05   -0.60321E-06  5344   0.152E-02    0.147E-03
DAV:  11    -0.163140514544E+03   -0.60652E-06   -0.11755E-06  3896   0.720E-03
  17 F= -.16314051E+03 E0= -.16312797E+03  d E =-.101110E-01
       N       E                     dE             d eps       ncg     rms          rms(c)
DAV:   1    -0.163098528445E+03    0.41985E-01   -0.36950E+01  6153   0.144E+01    0.536E-01
DAV:   2    -0.163151269549E+03   -0.52741E-01   -0.56250E-01  7144   0.403E+00    0.326E-01
DAV:   3    -0.163162873289E+03   -0.11604E-01   -0.15187E-01  6366   0.390E+00    0.240E-01
DAV:   4    -0.163162124319E+03    0.74897E-03   -0.38144E-02  6439   0.261E+00    0.112E-01
DAV:   5    -0.163165001651E+03   -0.28773E-02   -0.31103E-02  6439   0.106E+00    0.826E-02
DAV:   6    -0.163165742798E+03   -0.74115E-03   -0.85117E-03  6456   0.725E-01    0.513E-02
DAV:   7    -0.163165939383E+03   -0.19659E-03   -0.23207E-03  6992   0.397E-01    0.228E-02
DAV:   8    -0.163166052345E+03   -0.11296E-03   -0.11901E-03  6376   0.221E-01    0.131E-02
DAV:   9    -0.163166079650E+03   -0.27305E-04   -0.27823E-04  6744   0.143E-01    0.818E-03
DAV:  10    -0.163166100199E+03   -0.20549E-04   -0.15424E-04  7368   0.716E-02    0.584E-03
DAV:  11    -0.163166107335E+03   -0.71359E-05   -0.21235E-05  5728   0.292E-02    0.259E-03
DAV:  12    -0.163166110325E+03   -0.29904E-05   -0.59208E-06  5160   0.259E-02    0.174E-03
DAV:  13    -0.163166112188E+03   -0.18629E-05   -0.23059E-06  4216   0.140E-02    0.132E-03
DAV:  14    -0.163166114258E+03   -0.20693E-05   -0.11800E-06  4127   0.779E-03    0.919E-04
DAV:  15    -0.163166115433E+03   -0.11751E-05   -0.61783E-07  3680   0.432E-03    0.858E-04
DAV:  16    -0.163166116414E+03   -0.98096E-06   -0.19690E-07  3672   0.337E-03
  18 F= -.16316612E+03 E0= -.16315501E+03  d E =-.256019E-01
       N       E                     dE             d eps       ncg     rms          rms(c)
DAV:   1    -0.163166536995E+03   -0.42156E-03   -0.23159E+00  6164   0.360E+00    0.136E-01
DAV:   2    -0.163169756868E+03   -0.32199E-02   -0.33716E-02  7280   0.932E-01    0.829E-02
DAV:   3    -0.163170307026E+03   -0.55016E-03   -0.71728E-03  6222   0.106E+00    0.612E-02
DAV:   4    -0.163170260204E+03    0.46822E-04   -0.20785E-03  6328   0.616E-01    0.280E-02
DAV:   5    -0.163170465335E+03   -0.20513E-03   -0.21769E-03  6958   0.240E-01    0.201E-02
DAV:   6    -0.163170501093E+03   -0.35758E-04   -0.41124E-04  6352   0.142E-01    0.127E-02
DAV:   7    -0.163170508834E+03   -0.77406E-05   -0.94231E-05  6559   0.921E-02    0.606E-03
DAV:   8    -0.163170513505E+03   -0.46718E-05   -0.45054E-05  6352   0.441E-02    0.252E-03
DAV:   9    -0.163170514550E+03   -0.10442E-05   -0.89647E-06  4800   0.236E-02    0.168E-03
DAV:  10    -0.163170515048E+03   -0.49837E-06   -0.28104E-06  4296   0.139E-02
  19 F= -.16317052E+03 E0= -.16315983E+03  d E =-.439863E-02
       N       E                     dE             d eps       ncg     rms          rms(c)
DAV:   1    -0.163167920665E+03    0.25939E-02   -0.40520E+00  6155   0.475E+00    0.181E-01
DAV:   2    -0.163173522057E+03   -0.56014E-02   -0.58883E-02  7128   0.127E+00    0.110E-01
DAV:   3    -0.163174617625E+03   -0.10956E-02   -0.13713E-02  6261   0.132E+00    0.804E-02
DAV:   4    -0.163174561457E+03    0.56167E-04   -0.36175E-03  6328   0.826E-01    0.379E-02
DAV:   5    -0.163174893226E+03   -0.33177E-03   -0.35517E-03  6759   0.321E-01    0.261E-02
DAV:   6    -0.163174961339E+03   -0.68113E-04   -0.79150E-04  6344   0.209E-01    0.158E-02
DAV:   7    -0.163174977678E+03   -0.16339E-04   -0.19629E-04  7080   0.126E-01    0.763E-03
DAV:   8    -0.163174987815E+03   -0.10137E-04   -0.10310E-04  6568   0.651E-02    0.369E-03
DAV:   9    -0.163174990207E+03   -0.23925E-05   -0.22088E-05  5336   0.345E-02    0.220E-03
DAV:  10    -0.163174991319E+03   -0.11120E-05   -0.74442E-06  5127   0.196E-02    0.152E-03
DAV:  11    -0.163174991905E+03   -0.58598E-06   -0.17911E-06  3855   0.997E-03
  20 F= -.16317499E+03 E0= -.16316483E+03  d E =-.447686E-02
       N       E                     dE             d eps       ncg     rms          rms(c)
DAV:   1    -0.163175919665E+03   -0.92835E-03   -0.78092E-01  6155   0.206E+00    0.790E-02
DAV:   2    -0.163177064169E+03   -0.11445E-02   -0.11945E-02  7375   0.532E-01    0.476E-02
DAV:   3    -0.163177226114E+03   -0.16195E-03   -0.20573E-03  6187   0.583E-01    0.350E-02
DAV:   4    -0.163177210612E+03    0.15502E-04   -0.58096E-04  6504   0.347E-01    0.167E-02
DAV:   5    -0.163177264192E+03   -0.53580E-04   -0.57442E-04  6926   0.129E-01    0.102E-02
DAV:   6    -0.163177275750E+03   -0.11558E-04   -0.13484E-04  6312   0.890E-02    0.580E-03
DAV:   7    -0.163177279024E+03   -0.32739E-05   -0.38453E-05  6216   0.469E-02    0.331E-03
DAV:   8    -0.163177280436E+03   -0.14121E-05   -0.13608E-05  5967   0.222E-02    0.177E-03
DAV:   9    -0.163177280574E+03   -0.13738E-06   -0.15115E-06  3823   0.139E-02
  21 F= -.16317728E+03 E0= -.16316732E+03  d E =-.228867E-02
       N       E                     dE             d eps       ncg     rms          rms(c)
DAV:   1    -0.163177075761E+03    0.20468E-03   -0.20019E+00  6153   0.327E+00    0.124E-01
DAV:   2    -0.163180032686E+03   -0.29569E-02   -0.31005E-02  7271   0.828E-01    0.737E-02
DAV:   3    -0.163180460202E+03   -0.42752E-03   -0.51391E-03  6228   0.842E-01    0.537E-02
DAV:   4    -0.163180414542E+03    0.45659E-04   -0.12418E-03  6399   0.528E-01    0.265E-02
DAV:   5    -0.163180536221E+03   -0.12168E-03   -0.13353E-03  7103   0.208E-01    0.159E-02
DAV:   6    -0.163180565275E+03   -0.29054E-04   -0.34101E-04  6271   0.144E-01    0.906E-03
DAV:   7    -0.163180573935E+03   -0.86601E-05   -0.10320E-04  6736   0.757E-02    0.564E-03
DAV:   8    -0.163180577063E+03   -0.31274E-05   -0.31261E-05  6471   0.326E-02    0.285E-03
DAV:   9    -0.163180577524E+03   -0.46090E-06   -0.35964E-06  4624   0.209E-02
  22 F= -.16318058E+03 E0= -.16317091E+03  d E =-.329695E-02
       N       E                     dE             d eps       ncg     rms          rms(c)
DAV:   1    -0.163181650027E+03   -0.10730E-02   -0.54904E-01  6192   0.171E+00    0.616E-02
DAV:   2    -0.163182494021E+03   -0.84399E-03   -0.88252E-03  7384   0.395E-01    0.356E-02
DAV:   3    -0.163182587322E+03   -0.93301E-04   -0.10401E-03  6187   0.397E-01    0.256E-02
DAV:   4    -0.163182575378E+03    0.11944E-04   -0.23470E-04  6340   0.256E-01    0.137E-02
DAV:   5    -0.163182597512E+03   -0.22134E-04   -0.25907E-04  7847   0.964E-02    0.750E-03
DAV:   6    -0.163182603543E+03   -0.60311E-05   -0.69265E-05  6072   0.596E-02    0.426E-03
DAV:   7    -0.163182604930E+03   -0.13868E-05   -0.17228E-05  5752   0.357E-02    0.263E-03
DAV:   8    -0.163182605525E+03   -0.59490E-06   -0.53172E-06  5136   0.131E-02
  23 F= -.16318261E+03 E0= -.16317307E+03  d E =-.202800E-02
       N       E                     dE             d eps       ncg     rms          rms(c)
DAV:   1    -0.163183024560E+03   -0.41963E-03   -0.15924E+00  6201   0.292E+00    0.102E-01
DAV:   2    -0.163185470471E+03   -0.24459E-02   -0.25662E-02  7295   0.635E-01    0.577E-02
DAV:   3    -0.163185726452E+03   -0.25598E-03   -0.28380E-03  6211   0.607E-01    0.398E-02
DAV:   4    -0.163185711141E+03    0.15311E-04   -0.60640E-04  6411   0.413E-01    0.228E-02
DAV:   5    -0.163185762986E+03   -0.51845E-04   -0.66986E-04  8208   0.157E-01    0.126E-02
DAV:   6    -0.163185778216E+03   -0.15231E-04   -0.17344E-04  5960   0.882E-02    0.717E-03
DAV:   7    -0.163185780567E+03   -0.23503E-05   -0.32989E-05  6424   0.592E-02    0.437E-03
DAV:   8    -0.163185781907E+03   -0.13399E-05   -0.14853E-05  5446   0.228E-02    0.203E-03
DAV:   9    -0.163185782243E+03   -0.33606E-06   -0.27140E-06  3936   0.162E-02
  24 F= -.16318578E+03 E0= -.16317643E+03  d E =-.317672E-02
       N       E                     dE             d eps       ncg     rms          rms(c)
DAV:   1    -0.163186944026E+03   -0.11621E-02   -0.34951E-01  6289   0.138E+00    0.446E-02
DAV:   2    -0.163187502868E+03   -0.55884E-03   -0.58136E-03  7352   0.265E-01    0.246E-02
DAV:   3    -0.163187537374E+03   -0.34505E-04   -0.41165E-04  6181   0.207E-01    0.152E-02
DAV:   4    -0.163187542426E+03   -0.50521E-05   -0.70341E-05  6511   0.163E-01    0.985E-03
DAV:   5    -0.163187544685E+03   -0.22586E-05   -0.70256E-05  8605   0.870E-02    0.516E-03
DAV:   6    -0.163187547089E+03   -0.24046E-05   -0.31684E-05  6127   0.393E-02    0.305E-03
DAV:   7    -0.163187547949E+03   -0.85964E-06   -0.10272E-05  5408   0.203E-02    0.243E-03
DAV:   8    -0.163187548012E+03   -0.62952E-07   -0.19088E-06  3863   0.119E-02
  25 F= -.16318755E+03 E0= -.16317827E+03  d E =-.176577E-02
       N       E                     dE             d eps       ncg     rms          rms(c)
DAV:   1    -0.163187431221E+03    0.11673E-03   -0.24853E+00  6287   0.371E+00    0.117E-01
DAV:   2    -0.163191450773E+03   -0.40196E-02   -0.41961E-02  7335   0.686E-01    0.639E-02
DAV:   3    -0.163191651624E+03   -0.20085E-03   -0.26040E-03  6328   0.470E-01    0.385E-02
DAV:   4    -0.163191687046E+03   -0.35422E-04   -0.42871E-04  6613   0.384E-01    0.228E-02
DAV:   5    -0.163191710194E+03   -0.23148E-04   -0.42306E-04  8525   0.223E-01    0.132E-02
DAV:   6    -0.163191714721E+03   -0.45273E-05   -0.14867E-04  6559   0.115E-01    0.704E-03
DAV:   7    -0.163191722204E+03   -0.74825E-05   -0.81873E-05  6608   0.486E-02    0.577E-03
DAV:   8    -0.163191722452E+03   -0.24847E-06   -0.77826E-06  5376   0.289E-02
  26 F= -.16319172E+03 E0= -.16318261E+03  d E =-.417444E-02
       N       E                     dE             d eps       ncg     rms          rms(c)
DAV:   1    -0.163192809590E+03   -0.10874E-02   -0.30162E-01  6336   0.130E+00    0.394E-02
DAV:   2    -0.163193308857E+03   -0.49927E-03   -0.51715E-03  7391   0.231E-01    0.215E-02
DAV:   3    -0.163193325845E+03   -0.16988E-04   -0.22529E-04  6414   0.121E-01    0.131E-02
DAV:   4    -0.163193330361E+03   -0.45160E-05   -0.40354E-05  6213   0.102E-01    0.764E-03
DAV:   5    -0.163193331334E+03   -0.97348E-06   -0.27628E-05  7253   0.907E-02    0.436E-03
DAV:   6    -0.163193331673E+03   -0.33907E-06   -0.14095E-05  6968   0.459E-02    0.237E-03
DAV:   7    -0.163193332601E+03   -0.92731E-06   -0.96089E-06  5880   0.115E-02
  27 F= -.16319333E+03 E0= -.16318427E+03  d E =-.161015E-02
       N       E                     dE             d eps       ncg     rms          rms(c)
DAV:   1    -0.163192521880E+03    0.80979E-03   -0.31635E+00  6318   0.421E+00    0.127E-01
DAV:   2    -0.163197808284E+03   -0.52864E-02   -0.54766E-02  7388   0.729E-01    0.684E-02
DAV:   3    -0.163197956033E+03   -0.14775E-03   -0.20285E-03  6624   0.369E-01    0.428E-02
DAV:   4    -0.163198000955E+03   -0.44922E-04   -0.42964E-04  6327   0.368E-01    0.263E-02
DAV:   5    -0.163197983803E+03    0.17153E-04   -0.20088E-04  6877   0.313E-01    0.117E-02
DAV:   6    -0.163197997095E+03   -0.13293E-04   -0.21271E-04  7447   0.138E-01    0.729E-03
DAV:   7    -0.163198005262E+03   -0.81671E-05   -0.88045E-05  6848   0.398E-02    0.676E-03
DAV:   8    -0.163198005748E+03   -0.48568E-06   -0.10771E-05  5640   0.213E-02    0.502E-03
DAV:   9    -0.163198005881E+03   -0.13305E-06   -0.19185E-06  3950   0.317E-02
  28 F= -.16319801E+03 E0= -.16318908E+03  d E =-.467328E-02
       N       E                     dE             d eps       ncg     rms          rms(c)
DAV:   1    -0.163198320300E+03   -0.31455E-03   -0.14015E+00  6328   0.280E+00    0.842E-02
DAV:   2    -0.163200645263E+03   -0.23250E-02   -0.24059E-02  7488   0.488E-01    0.455E-02
DAV:   3    -0.163200714839E+03   -0.69576E-04   -0.92865E-04  6487   0.254E-01    0.287E-02
DAV:   4    -0.163200734126E+03   -0.19287E-04   -0.20575E-04  6278   0.255E-01    0.181E-02
DAV:   5    -0.163200727800E+03    0.63264E-05   -0.11150E-04  7157   0.211E-01    0.780E-03
DAV:   6    -0.163200734816E+03   -0.70165E-05   -0.94867E-05  7647   0.829E-02    0.517E-03
DAV:   7    -0.163200737634E+03   -0.28171E-05   -0.31036E-05  6551   0.241E-02    0.460E-03
DAV:   8    -0.163200737606E+03    0.27852E-07   -0.27872E-06  4439   0.173E-02
  29 F= -.16320074E+03 E0= -.16319190E+03  d E =-.273172E-02
       N       E                     dE             d eps       ncg     rms          rms(c)
DAV:   1    -0.163200648868E+03    0.88766E-04   -0.15666E+00  6374   0.296E+00    0.885E-02
DAV:   2    -0.163203260716E+03   -0.26118E-02   -0.26985E-02  7472   0.512E-01    0.483E-02
DAV:   3    -0.163203332549E+03   -0.71833E-04   -0.97327E-04  6463   0.273E-01    0.305E-02
DAV:   4    -0.163203353834E+03   -0.21284E-04   -0.23158E-04  6310   0.276E-01    0.195E-02
DAV:   5    -0.163203344189E+03    0.96451E-05   -0.11921E-04  7005   0.224E-01    0.780E-03
DAV:   6    -0.163203353585E+03   -0.93966E-05   -0.11604E-04  7686   0.837E-02    0.549E-03
DAV:   7    -0.163203356387E+03   -0.28013E-05   -0.31300E-05  6679   0.236E-02    0.490E-03
DAV:   8    -0.163203356279E+03    0.10776E-06   -0.21013E-06  4174   0.156E-02
  30 F= -.16320336E+03 E0= -.16319460E+03  d E =-.261867E-02
       N       E                     dE             d eps       ncg     rms          rms(c)
DAV:   1    -0.163203108215E+03    0.24817E-03   -0.14935E+00  6350   0.289E+00    0.861E-02
DAV:   2    -0.163205611797E+03   -0.25036E-02   -0.25855E-02  7472   0.495E-01    0.471E-02
DAV:   3    -0.163205675940E+03   -0.64143E-04   -0.87466E-04  6551   0.259E-01    0.297E-02
DAV:   4    -0.163205696570E+03   -0.20630E-04   -0.20825E-04  6311   0.266E-01    0.191E-02
DAV:   5    -0.163205686182E+03    0.10388E-04   -0.11109E-04  7029   0.213E-01    0.735E-03
DAV:   6    -0.163205695174E+03   -0.89921E-05   -0.10756E-04  7702   0.783E-02    0.531E-03
DAV:   7    -0.163205697183E+03   -0.20088E-05   -0.24912E-05  6456   0.207E-02    0.470E-03
DAV:   8    -0.163205697017E+03    0.16639E-06   -0.13901E-06  3630   0.152E-02
  31 F= -.16320570E+03 E0= -.16319703E+03  d E =-.234074E-02
       N       E                     dE             d eps       ncg     rms          rms(c)
DAV:   1    -0.163204693664E+03    0.10035E-02   -0.19164E+00  6350   0.327E+00    0.975E-02
DAV:   2    -0.163207925244E+03   -0.32316E-02   -0.33384E-02  7464   0.557E-01    0.534E-02
DAV:   3    -0.163208002897E+03   -0.77652E-04   -0.10816E-03  6576   0.288E-01    0.334E-02
DAV:   4    -0.163208029991E+03   -0.27095E-04   -0.25305E-04  6320   0.294E-01    0.212E-02
DAV:   5    -0.163208016286E+03    0.13706E-04   -0.13631E-04  7014   0.238E-01    0.829E-03
DAV:   6    -0.163208026903E+03   -0.10618E-04   -0.13233E-04  7759   0.893E-02    0.590E-03
DAV:   7    -0.163208029854E+03   -0.29510E-05   -0.33171E-05  6543   0.237E-02    0.525E-03
DAV:   8    -0.163208029686E+03    0.16783E-06   -0.19701E-06  3983   0.147E-02
  32 F= -.16320803E+03 E0= -.16319948E+03  d E =-.233267E-02
       N       E                     dE             d eps       ncg     rms          rms(c)
DAV:   1    -0.163207820650E+03    0.20920E-03   -0.10304E+00  6335   0.239E+00    0.715E-02
DAV:   2    -0.163209567819E+03   -0.17472E-02   -0.18061E-02  7455   0.406E-01    0.395E-02
DAV:   3    -0.163209608465E+03   -0.40646E-04   -0.57627E-04  6606   0.207E-01    0.244E-02
DAV:   4    -0.163209624274E+03   -0.15809E-04   -0.12508E-04  6256   0.200E-01    0.150E-02
DAV:   5    -0.163209617679E+03    0.65956E-05   -0.67373E-05  6982   0.169E-01    0.628E-03
DAV:   6    -0.163209622520E+03   -0.48408E-05   -0.63459E-05  7791   0.665E-02    0.423E-03
DAV:   7    -0.163209624294E+03   -0.17741E-05   -0.19566E-05  6334   0.181E-02    0.382E-03
DAV:   8    -0.163209624245E+03    0.48429E-07   -0.13051E-06  3582   0.857E-03
  33 F= -.16320962E+03 E0= -.16320116E+03  d E =-.159456E-02
       N       E                     dE             d eps       ncg     rms          rms(c)
DAV:   1    -0.163209122954E+03    0.50134E-03   -0.11979E+00  6310   0.256E+00    0.773E-02
DAV:   2    -0.163211170026E+03   -0.20471E-02   -0.21189E-02  7479   0.436E-01    0.426E-02
DAV:   3    -0.163211218293E+03   -0.48267E-04   -0.69146E-04  6999   0.215E-01    0.263E-02
DAV:   4    -0.163211233190E+03   -0.14897E-04   -0.12470E-04  6163   0.195E-01    0.151E-02
DAV:   5    -0.163211228939E+03    0.42517E-05   -0.62462E-05  6852   0.172E-01    0.704E-03
DAV:   6    -0.163211232510E+03   -0.35717E-05   -0.66629E-05  7935   0.797E-02    0.429E-03
DAV:   7    -0.163211234288E+03   -0.17780E-05   -0.21429E-05  6175   0.216E-02    0.363E-03
DAV:   8    -0.163211234512E+03   -0.22378E-06   -0.38127E-06  4527   0.106E-02
  34 F= -.16321123E+03 E0= -.16320289E+03  d E =-.161027E-02
       N       E                     dE             d eps       ncg     rms          rms(c)
DAV:   1    -0.163211496897E+03   -0.26261E-03   -0.41286E-01  6302   0.149E+00    0.457E-02
DAV:   2    -0.163212203562E+03   -0.70667E-03   -0.73363E-03  7279   0.261E-01    0.256E-02
DAV:   3    -0.163212224901E+03   -0.21339E-04   -0.29966E-04  6653   0.159E-01    0.154E-02
DAV:   4    -0.163212228977E+03   -0.40752E-05   -0.56326E-05  6312   0.125E-01    0.790E-03
DAV:   5    -0.163212233706E+03   -0.47298E-05   -0.40449E-05  8189   0.745E-02    0.448E-03
DAV:   6    -0.163212233800E+03   -0.93220E-07   -0.17338E-05  6976   0.520E-02    0.255E-03
DAV:   7    -0.163212234770E+03   -0.97047E-06   -0.99691E-06  5702   0.173E-02
  35 F= -.16321223E+03 E0= -.16320397E+03  d E =-.100026E-02
       N       E                     dE             d eps       ncg     rms          rms(c)
DAV:   1    -0.163212645196E+03   -0.41140E-03   -0.31177E-01  6249   0.126E+00    0.398E-02
DAV:   2    -0.163213184802E+03   -0.53961E-03   -0.56223E-03  7480   0.217E-01    0.222E-02
DAV:   3    -0.163213199913E+03   -0.15111E-04   -0.21229E-04  6527   0.135E-01    0.133E-02
DAV:   4    -0.163213202243E+03   -0.23300E-05   -0.34836E-05  6272   0.106E-01    0.631E-03
DAV:   5    -0.163213206737E+03   -0.44940E-05   -0.38719E-05  8744   0.441E-02    0.330E-03
DAV:   6    -0.163213206838E+03   -0.10079E-06   -0.58099E-06  4848   0.270E-02
  36 F= -.16321321E+03 E0= -.16320503E+03  d E =-.972068E-03
       N       E                     dE             d eps       ncg     rms          rms(c)
DAV:   1    -0.163213718673E+03   -0.51194E-03   -0.14445E-01  6274   0.824E-01    0.272E-02
DAV:   2    -0.163213969860E+03   -0.25119E-03   -0.26319E-03  7392   0.147E-01    0.154E-02
DAV:   3    -0.163213979008E+03   -0.91480E-05   -0.11962E-04  6295   0.110E-01    0.944E-03
DAV:   4    -0.163213981094E+03   -0.20863E-05   -0.18407E-05  6304   0.871E-02    0.557E-03
DAV:   5    -0.163213982022E+03   -0.92764E-06   -0.15339E-05  7124   0.531E-02    0.313E-03
DAV:   6    -0.163213982456E+03   -0.43437E-06   -0.78596E-06  5952   0.272E-02
  37 F= -.16321398E+03 E0= -.16320587E+03  d E =-.775618E-03
       N       E                     dE             d eps       ncg     rms          rms(c)
DAV:   1    -0.163214543356E+03   -0.56133E-03   -0.10398E-01  6235   0.662E-01    0.233E-02
DAV:   2    -0.163214723713E+03   -0.18036E-03   -0.19051E-03  7520   0.119E-01    0.130E-02
DAV:   3    -0.163214730879E+03   -0.71659E-05   -0.91752E-05  6248   0.947E-02    0.798E-03
DAV:   4    -0.163214732425E+03   -0.15456E-05   -0.13990E-05  6248   0.754E-02    0.499E-03
DAV:   5    -0.163214732516E+03   -0.90702E-07   -0.90740E-06  5840   0.451E-02    0.267E-03
DAV:   6    -0.163214733170E+03   -0.65399E-06   -0.74490E-06  6056   0.218E-02
  38 F= -.16321473E+03 E0= -.16320668E+03  d E =-.750713E-03
       N       E                     dE             d eps       ncg     rms          rms(c)
DAV:   1    -0.163213866831E+03    0.86568E-03   -0.10529E-01  6216   0.689E-01    0.244E-02
DAV:   2    -0.163214045325E+03   -0.17849E-03   -0.18929E-03  7400   0.123E-01    0.128E-02
DAV:   3    -0.163214050830E+03   -0.55053E-05   -0.94686E-05  6272   0.963E-02    0.758E-03
DAV:   4    -0.163214051477E+03   -0.64692E-06   -0.15766E-05  6223   0.742E-02    0.426E-03
DAV:   5    -0.163214051791E+03   -0.31416E-06   -0.10608E-05  6120   0.436E-02    0.265E-03
DAV:   6    -0.163214051993E+03   -0.20245E-06   -0.62503E-06  5567   0.245E-02
  39 F= -.16321405E+03 E0= -.16320594E+03  d E =0.681176E-03
       N       E                     dE             d eps       ncg     rms          rms(c)
DAV:   1    -0.163214387841E+03   -0.33605E-03   -0.10859E+00  6199   0.216E+00    0.772E-02
DAV:   2    -0.163216257384E+03   -0.18695E-02   -0.19776E-02  7456   0.393E-01    0.412E-02
DAV:   3    -0.163216332793E+03   -0.75409E-04   -0.10594E-03  6255   0.305E-01    0.246E-02
DAV:   4    -0.163216343698E+03   -0.10905E-04   -0.15549E-04  6263   0.240E-01    0.142E-02
DAV:   5    -0.163216350913E+03   -0.72147E-05   -0.14298E-04  8840   0.142E-01    0.868E-03
DAV:   6    -0.163216352344E+03   -0.14309E-05   -0.47725E-05  6720   0.646E-02    0.468E-03
DAV:   7    -0.163216354627E+03   -0.22831E-05   -0.25716E-05  6407   0.291E-02    0.369E-03
DAV:   8    -0.163216354757E+03   -0.13068E-06   -0.36107E-06  4543   0.149E-02
  40 F= -.16321635E+03 E0= -.16320842E+03  d E =-.230276E-02
       N       E                     dE             d eps       ncg     rms          rms(c)
DAV:   1    -0.163214292710E+03    0.20619E-02   -0.41311E-01  6199   0.136E+00    0.471E-02
DAV:   2    -0.163215000035E+03   -0.70732E-03   -0.74667E-03  7408   0.237E-01    0.254E-02
DAV:   3    -0.163215019144E+03   -0.19109E-04   -0.32099E-04  6304   0.169E-01    0.152E-02
DAV:   4    -0.163215022139E+03   -0.29954E-05   -0.55058E-05  6271   0.138E-01    0.832E-03
DAV:   5    -0.163215024317E+03   -0.21780E-05   -0.43179E-05  8408   0.847E-02    0.504E-03
DAV:   6    -0.163215024032E+03    0.28464E-06   -0.15444E-05  6399   0.435E-02    0.272E-03
DAV:   7    -0.163215025231E+03   -0.11985E-05   -0.11762E-05  6359   0.190E-02    0.245E-03
DAV:   8    -0.163215025454E+03   -0.22352E-06   -0.13766E-06  3463   0.909E-03
  41 F= -.16321503E+03 E0= -.16320699E+03  d E =0.132930E-02
       N       E                     dE             d eps       ncg     rms          rms(c)
DAV:   1    -0.163215027346E+03   -0.21154E-05   -0.60965E-03  6354   0.186E-01    0.552E-03
DAV:   2    -0.163215037301E+03   -0.99549E-05   -0.10596E-04  7352   0.359E-02    0.337E-03
DAV:   3    -0.163215037615E+03   -0.31375E-06   -0.66847E-06  5200   0.242E-02    0.217E-03
DAV:   4    -0.163215037542E+03    0.73138E-07   -0.12319E-06  3480   0.168E-02    0.143E-03
DAV:   5    -0.163215037495E+03    0.46493E-07   -0.45998E-07  3376   0.138E-02    0.102E-03
DAV:   6    -0.163215037482E+03    0.12835E-07   -0.48445E-07  3150   0.811E-03
  42 F= -.16321504E+03 E0= -.16320699E+03  d E =-.120281E-04
       N       E                     dE             d eps       ncg     rms          rms(c)
DAV:   1    -0.163213995975E+03    0.10415E-02   -0.70931E-01  6335   0.200E+00    0.598E-02
DAV:   2    -0.163215153801E+03   -0.11578E-02   -0.12057E-02  7536   0.347E-01    0.333E-02
DAV:   3    -0.163215186094E+03   -0.32293E-04   -0.47251E-04  6375   0.190E-01    0.206E-02
DAV:   4    -0.163215192661E+03   -0.65672E-05   -0.93513E-05  6264   0.183E-01    0.129E-02
DAV:   5    -0.163215188116E+03    0.45450E-05   -0.61047E-05  7287   0.143E-01    0.541E-03
DAV:   6    -0.163215191886E+03   -0.37696E-05   -0.51317E-05  7871   0.543E-02    0.392E-03
DAV:   7    -0.163215193118E+03   -0.12326E-05   -0.12250E-05  5847   0.136E-02    0.352E-03
DAV:   8    -0.163215193206E+03   -0.87966E-07   -0.55321E-07  3173   0.762E-03
  43 F= -.16321519E+03 E0= -.16320711E+03  d E =-.155724E-03
       N       E                     dE             d eps       ncg     rms          rms(c)
DAV:   1    -0.163213773304E+03    0.14198E-02   -0.86431E-01  6303   0.221E+00    0.663E-02
DAV:   2    -0.163215207487E+03   -0.14342E-02   -0.14847E-02  7502   0.376E-01    0.364E-02
DAV:   3    -0.163215247716E+03   -0.40230E-04   -0.53723E-04  6654   0.191E-01    0.227E-02
DAV:   4    -0.163215259007E+03   -0.11291E-04   -0.10578E-04  6279   0.192E-01    0.137E-02
DAV:   5    -0.163215254172E+03    0.48347E-05   -0.57227E-05  7086   0.156E-01    0.567E-03
DAV:   6    -0.163215258085E+03   -0.39129E-05   -0.56199E-05  7887   0.636E-02    0.393E-03
DAV:   7    -0.163215259550E+03   -0.14649E-05   -0.16871E-05  6215   0.166E-02    0.367E-03
DAV:   8    -0.163215259513E+03    0.36875E-07   -0.13966E-06  3423   0.656E-03
  44 F= -.16321526E+03 E0= -.16320724E+03  d E =-.663072E-04
       N       E                     dE             d eps       ncg     rms          rms(c)
DAV:   1    -0.163215405210E+03   -0.14566E-03   -0.82728E-02  6352   0.681E-01    0.209E-02
DAV:   2    -0.163215536987E+03   -0.13178E-03   -0.13910E-03  7520   0.117E-01    0.109E-02
DAV:   3    -0.163215541667E+03   -0.46805E-05   -0.68036E-05  6272   0.778E-02    0.689E-03
DAV:   4    -0.163215541902E+03   -0.23520E-06   -0.13566E-05  6174   0.700E-02    0.426E-03
DAV:   5    -0.163215541446E+03    0.45641E-06   -0.59168E-06  5728   0.463E-02    0.206E-03
DAV:   6    -0.163215541939E+03   -0.49268E-06   -0.68125E-06  5806   0.182E-02
  45 F= -.16321554E+03 E0= -.16320751E+03  d E =-.282425E-03
       N       E                     dE             d eps       ncg     rms          rms(c)
DAV:   1    -0.163215762066E+03   -0.22062E-03   -0.85091E-03  6243   0.180E-01    0.701E-03
DAV:   2    -0.163215777271E+03   -0.15205E-04   -0.16171E-04  7448   0.396E-02    0.375E-03
DAV:   3    -0.163215778010E+03   -0.73873E-06   -0.83456E-06  5312   0.288E-02    0.224E-03
DAV:   4    -0.163215778239E+03   -0.22947E-06   -0.16785E-06  3968   0.191E-02    0.142E-03
DAV:   5    -0.163215778381E+03   -0.14159E-06   -0.84964E-07  3456   0.130E-02    0.107E-03
DAV:   6    -0.163215778409E+03   -0.28158E-07   -0.57970E-07  3200   0.785E-03
  46 F= -.16321578E+03 E0= -.16320776E+03  d E =-.236470E-03
       N       E                     dE             d eps       ncg     rms          rms(c)
DAV:   1    -0.163215879275E+03   -0.10089E-03   -0.20603E-03  6327   0.952E-02    0.330E-03
DAV:   2    -0.163215882428E+03   -0.31528E-05   -0.34935E-05  7424   0.173E-02    0.192E-03
DAV:   3    -0.163215882569E+03   -0.14147E-06   -0.20931E-06  3992   0.135E-02    0.134E-03
DAV:   4    -0.163215882560E+03    0.92696E-08   -0.33901E-07  3264   0.111E-02    0.106E-03
DAV:   5    -0.163215882562E+03   -0.17317E-08   -0.14616E-07  3136   0.669E-03    0.911E-04
DAV:   6    -0.163215882574E+03   -0.12093E-07   -0.16683E-07  3082   0.298E-03
  47 F= -.16321588E+03 E0= -.16320787E+03  d E =-.104165E-03
       N       E                     dE             d eps       ncg     rms          rms(c)
DAV:   1    -0.163214399621E+03    0.14829E-02   -0.23997E-01  6324   0.103E+00    0.350E-02
DAV:   2    -0.163214776278E+03   -0.37666E-03   -0.40588E-03  7584   0.191E-01    0.182E-02
DAV:   3    -0.163214792299E+03   -0.16021E-04   -0.23143E-04  6264   0.139E-01    0.108E-02
DAV:   4    -0.163214794529E+03   -0.22297E-05   -0.42145E-05  6151   0.115E-01    0.671E-03
DAV:   5    -0.163214794146E+03    0.38293E-06   -0.20944E-05  7208   0.706E-02    0.377E-03
DAV:   6    -0.163214795547E+03   -0.14008E-05   -0.16350E-05  6543   0.262E-02    0.230E-03
DAV:   7    -0.163214796060E+03   -0.51250E-06   -0.51280E-06  4776   0.113E-02
  48 F= -.16321480E+03 E0= -.16320676E+03  d E =0.108651E-02
       N       E                     dE             d eps       ncg     rms          rms(c)
DAV:   1    -0.163214742295E+03    0.53252E-04   -0.53869E-03  6381   0.170E-01    0.531E-03
DAV:   2    -0.163214751610E+03   -0.93143E-05   -0.96231E-05  7040   0.330E-02    0.330E-03
DAV:   3    -0.163214752225E+03   -0.61531E-06   -0.63647E-06  4975   0.257E-02    0.207E-03
DAV:   4    -0.163214752427E+03   -0.20261E-06   -0.11354E-06  3109   0.155E-02    0.130E-03
DAV:   5    -0.163214752579E+03   -0.15169E-06   -0.62671E-07  3189   0.725E-03    0.951E-04
DAV:   6    -0.163214752632E+03   -0.52925E-07   -0.53987E-07  3045   0.702E-03
  49 F= -.16321475E+03 E0= -.16320672E+03  d E =0.434274E-04
       N       E                     dE             d eps       ncg     rms          rms(c)
DAV:   1    -0.163210538456E+03    0.42141E-02   -0.19191E+00  6318   0.320E+00    0.101E-01
DAV:   2    -0.163213733922E+03   -0.31955E-02   -0.33623E-02  7528   0.576E-01    0.552E-02
DAV:   3    -0.163213857872E+03   -0.12395E-03   -0.17170E-03  6735   0.356E-01    0.332E-02
DAV:   4    -0.163213864937E+03   -0.70652E-05   -0.22574E-04  6528   0.266E-01    0.160E-02
DAV:   5    -0.163213887338E+03   -0.22401E-04   -0.20840E-04  8783   0.923E-02    0.729E-03
DAV:   6    -0.163213887948E+03   -0.61058E-06   -0.28729E-05  6272   0.670E-02    0.540E-03
DAV:   7    -0.163213888624E+03   -0.67575E-06   -0.11271E-05  5968   0.361E-02    0.338E-03
DAV:   8    -0.163213888988E+03   -0.36437E-06   -0.33780E-06  4615   0.161E-02
  50 F= -.16321389E+03 E0= -.16320602E+03  d E =0.863644E-03
       N       E                     dE             d eps       ncg     rms          rms(c)
DAV:   1    -0.163213741159E+03    0.14746E-03   -0.76394E-02  6242   0.629E-01    0.206E-02
DAV:   2    -0.163213871799E+03   -0.13064E-03   -0.13600E-03  7480   0.113E-01    0.116E-02
DAV:   3    -0.163213877364E+03   -0.55642E-05   -0.64091E-05  6399   0.804E-02    0.706E-03
DAV:   4    -0.163213878890E+03   -0.15269E-05   -0.10377E-05  6024   0.643E-02    0.397E-03
DAV:   5    -0.163213879481E+03   -0.59071E-06   -0.74135E-06  6159   0.388E-02    0.214E-03
DAV:   6    -0.163213879789E+03   -0.30764E-06   -0.46359E-06  5128   0.196E-02
  51 F= -.16321388E+03 E0= -.16320605E+03  d E =0.919960E-05
       N       E                     dE             d eps       ncg     rms          rms(c)
DAV:   1    -0.163214091684E+03   -0.21220E-03   -0.94455E-03  6246   0.214E-01    0.761E-03
DAV:   2    -0.163214106659E+03   -0.14975E-04   -0.16226E-04  7656   0.403E-02    0.407E-03
DAV:   3    -0.163214107410E+03   -0.75143E-06   -0.10228E-05  5768   0.304E-02    0.251E-03
DAV:   4    -0.163214107450E+03   -0.39945E-07   -0.19640E-06  4144   0.266E-02    0.165E-03
DAV:   5    -0.163214107438E+03    0.11845E-07   -0.62369E-07  3504   0.149E-02    0.108E-03
DAV:   6    -0.163214107547E+03   -0.10866E-06   -0.83079E-07  3390   0.617E-03
  52 F= -.16321411E+03 E0= -.16320629E+03  d E =-.227758E-03
       N       E                     dE             d eps       ncg     rms          rms(c)
DAV:   1    -0.163214943059E+03   -0.83562E-03   -0.29300E-01  6186   0.117E+00    0.398E-02
DAV:   2    -0.163215404922E+03   -0.46186E-03   -0.49675E-03  7520   0.211E-01    0.221E-02
DAV:   3    -0.163215423961E+03   -0.19040E-04   -0.27870E-04  6216   0.162E-01    0.131E-02
DAV:   4    -0.163215425709E+03   -0.17477E-05   -0.48400E-05  6184   0.138E-01    0.807E-03
DAV:   5    -0.163215424602E+03    0.11073E-05   -0.26576E-05  7327   0.786E-02    0.409E-03
DAV:   6    -0.163215426567E+03   -0.19648E-05   -0.22728E-05  6615   0.274E-02    0.258E-03
DAV:   7    -0.163215427164E+03   -0.59771E-06   -0.60074E-06  4968   0.132E-02
  53 F= -.16321543E+03 E0= -.16320764E+03  d E =-.131962E-02
       N       E                     dE             d eps       ncg     rms          rms(c)
DAV:   1    -0.163214275794E+03    0.11508E-02   -0.14699E-01  6212   0.833E-01    0.285E-02
DAV:   2    -0.163214508600E+03   -0.23281E-03   -0.24910E-03  7488   0.148E-01    0.153E-02
DAV:   3    -0.163214518324E+03   -0.97242E-05   -0.13893E-04  6248   0.112E-01    0.908E-03
DAV:   4    -0.163214519459E+03   -0.11352E-05   -0.24057E-05  6159   0.956E-02    0.557E-03
DAV:   5    -0.163214518759E+03    0.70015E-06   -0.10983E-05  6560   0.567E-02    0.283E-03
DAV:   6    -0.163214519809E+03   -0.10505E-05   -0.11855E-05  6774   0.205E-02    0.191E-03
DAV:   7    -0.163214520081E+03   -0.27139E-06   -0.29385E-06  4176   0.942E-03
  54 F= -.16321452E+03 E0= -.16320672E+03  d E =0.907084E-03
       N       E                     dE             d eps       ncg     rms          rms(c)
DAV:   1    -0.163215279061E+03   -0.75925E-03   -0.98153E-01  6195   0.212E+00    0.729E-02
DAV:   2    -0.163216831972E+03   -0.15529E-02   -0.16716E-02  7528   0.386E-01    0.397E-02
DAV:   3    -0.163216896659E+03   -0.64687E-04   -0.95802E-04  6263   0.287E-01    0.232E-02
DAV:   4    -0.163216903663E+03   -0.70047E-05   -0.15584E-04  6192   0.243E-01    0.142E-02
DAV:   5    -0.163216900968E+03    0.26948E-05   -0.94040E-05  7823   0.144E-01    0.749E-03
DAV:   6    -0.163216906548E+03   -0.55792E-05   -0.69246E-05  6647   0.494E-02    0.453E-03
DAV:   7    -0.163216908445E+03   -0.18975E-05   -0.19122E-05  6216   0.223E-02    0.359E-03
DAV:   8    -0.163216908594E+03   -0.14924E-06   -0.20786E-06  3968   0.214E-02
  55 F= -.16321691E+03 E0= -.16320916E+03  d E =-.238851E-02
       N       E                     dE             d eps       ncg     rms          rms(c)
DAV:   1    -0.163214825668E+03    0.20828E-02   -0.37807E-01  6219   0.133E+00    0.452E-02
DAV:   2    -0.163215425506E+03   -0.59984E-03   -0.64265E-03  7512   0.238E-01    0.247E-02
DAV:   3    -0.163215449583E+03   -0.24078E-04   -0.35335E-04  6304   0.175E-01    0.147E-02
DAV:   4    -0.163215452968E+03   -0.33849E-05   -0.60949E-05  6168   0.149E-01    0.889E-03
DAV:   5    -0.163215451839E+03    0.11297E-05   -0.33145E-05  7488   0.941E-02    0.470E-03
DAV:   6    -0.163215454074E+03   -0.22350E-05   -0.27333E-05  7311   0.330E-02    0.295E-03
DAV:   7    -0.163215454733E+03   -0.65923E-06   -0.66983E-06  5416   0.117E-02
  56 F= -.16321545E+03 E0= -.16320768E+03  d E =0.145386E-02
       N       E                     dE             d eps       ncg     rms          rms(c)
DAV:   1    -0.163215875556E+03   -0.42148E-03   -0.36260E-02  6180   0.393E-01    0.142E-02
DAV:   2    -0.163215932313E+03   -0.56756E-04   -0.61432E-04  7568   0.697E-02    0.728E-03
DAV:   3    -0.163215934926E+03   -0.26129E-05   -0.35936E-05  6360   0.522E-02    0.430E-03
DAV:   4    -0.163215935088E+03   -0.16259E-06   -0.56055E-06  5695   0.452E-02    0.268E-03
DAV:   5    -0.163215934960E+03    0.12862E-06   -0.18827E-06  4232   0.260E-02    0.151E-03
DAV:   6    -0.163215935114E+03   -0.15432E-06   -0.21969E-06  3671   0.106E-02
  57 F= -.16321594E+03 E0= -.16320817E+03  d E =-.480381E-03
       N       E                     dE             d eps       ncg     rms          rms(c)
DAV:   1    -0.163216905027E+03   -0.97007E-03   -0.99557E-01  6195   0.202E+00    0.728E-02
DAV:   2    -0.163218497656E+03   -0.15926E-02   -0.17229E-02  7536   0.370E-01    0.392E-02
DAV:   3    -0.163218556477E+03   -0.58821E-04   -0.91765E-04  6263   0.267E-01    0.223E-02
DAV:   4    -0.163218566343E+03   -0.98656E-05   -0.14544E-04  6216   0.228E-01    0.136E-02
DAV:   5    -0.163218563769E+03    0.25739E-05   -0.80986E-05  7512   0.141E-01    0.725E-03
DAV:   6    -0.163218568431E+03   -0.46628E-05   -0.61126E-05  6888   0.544E-02    0.432E-03
DAV:   7    -0.163218570680E+03   -0.22489E-05   -0.22257E-05  6311   0.228E-02    0.355E-03
DAV:   8    -0.163218570868E+03   -0.18810E-06   -0.21991E-06  4008   0.179E-02
  58 F= -.16321857E+03 E0= -.16321086E+03  d E =-.263575E-02
       N       E                     dE             d eps       ncg     rms          rms(c)
DAV:   1    -0.163205135748E+03    0.13435E-01   -0.46405E+00  6187   0.435E+00    0.158E-01
DAV:   2    -0.163212808758E+03   -0.76730E-02   -0.82806E-02  7544   0.797E-01    0.845E-02
DAV:   3    -0.163213039812E+03   -0.23105E-03   -0.39003E-03  6168   0.571E-01    0.486E-02
DAV:   4    -0.163213098061E+03   -0.58250E-04   -0.91478E-04  6302   0.490E-01    0.297E-02
DAV:   5    -0.163213092401E+03    0.56609E-05   -0.36052E-04  7080   0.312E-01    0.169E-02
DAV:   6    -0.163213111693E+03   -0.19292E-04   -0.28327E-04  6911   0.129E-01    0.926E-03
DAV:   7    -0.163213123571E+03   -0.11878E-04   -0.11544E-04  6687   0.581E-02    0.710E-03
DAV:   8    -0.163213125212E+03   -0.16405E-05   -0.16044E-05  5360   0.452E-02    0.371E-03
DAV:   9    -0.163213126454E+03   -0.12424E-05   -0.74421E-06  5767   0.224E-02    0.141E-03
DAV:  10    -0.163213127161E+03   -0.70751E-06   -0.53568E-06  4768   0.120E-02
  59 F= -.16321313E+03 E0= -.16320529E+03  d E =0.544371E-02
       N       E                     dE             d eps       ncg     rms          rms(c)
DAV:   1    -0.163213705091E+03   -0.57864E-03   -0.88095E-02  6162   0.611E-01    0.223E-02
DAV:   2    -0.163213844525E+03   -0.13943E-03   -0.15044E-03  7600   0.113E-01    0.119E-02
DAV:   3    -0.163213851255E+03   -0.67304E-05   -0.91071E-05  6248   0.873E-02    0.702E-03
DAV:   4    -0.163213851852E+03   -0.59672E-06   -0.15398E-05  6192   0.746E-02    0.427E-03
DAV:   5    -0.163213851654E+03    0.19805E-06   -0.64581E-06  5720   0.415E-02    0.237E-03
DAV:   6    -0.163213852250E+03   -0.59618E-06   -0.70821E-06  5766   0.170E-02
  60 F= -.16321385E+03 E0= -.16320604E+03  d E =-.725089E-03
       N       E                     dE             d eps       ncg     rms          rms(c)
DAV:   1    -0.163214412621E+03   -0.56097E-03   -0.15295E+00  6163   0.252E+00    0.913E-02
DAV:   2    -0.163216880623E+03   -0.24680E-02   -0.26638E-02  7528   0.460E-01    0.499E-02
DAV:   3    -0.163216975586E+03   -0.94963E-04   -0.14490E-03  6208   0.350E-01    0.286E-02
DAV:   4    -0.163216990674E+03   -0.15088E-04   -0.23783E-04  6166   0.301E-01    0.175E-02
DAV:   5    -0.163216986468E+03    0.42055E-05   -0.14702E-04  7910   0.174E-01    0.939E-03
DAV:   6    -0.163216994685E+03   -0.82171E-05   -0.10000E-04  6470   0.613E-02    0.549E-03
DAV:   7    -0.163216997706E+03   -0.30207E-05   -0.30645E-05  6256   0.300E-02    0.428E-03
DAV:   8    -0.163216998101E+03   -0.39481E-06   -0.47254E-06  4992   0.260E-02
  61 F= -.16321700E+03 E0= -.16320928E+03  d E =-.314585E-02
       N       E                     dE             d eps       ncg     rms          rms(c)
DAV:   1    -0.163210266897E+03    0.67308E-02   -0.19243E+00  6155   0.281E+00    0.103E-01
DAV:   2    -0.163213373847E+03   -0.31069E-02   -0.33527E-02  7544   0.507E-01    0.554E-02
DAV:   3    -0.163213474712E+03   -0.10086E-03   -0.16406E-03  6184   0.380E-01    0.321E-02
DAV:   4    -0.163213494370E+03   -0.19657E-04   -0.33878E-04  6255   0.328E-01    0.194E-02
DAV:   5    -0.163213490832E+03    0.35373E-05   -0.16771E-04  7488   0.201E-01    0.109E-02
DAV:   6    -0.163213499466E+03   -0.86337E-05   -0.11827E-04  6614   0.783E-02    0.603E-03
DAV:   7    -0.163213504071E+03   -0.46052E-05   -0.45273E-05  6584   0.361E-02    0.482E-03
DAV:   8    -0.163213504623E+03   -0.55120E-06   -0.60076E-06  4919   0.286E-02
  62 F= -.16321350E+03 E0= -.16320569E+03  d E =0.349348E-02
