 vasp.6.3.2 27Jun22 (build Jan 20 2026 21:31:33) complex                         
 executed on             LinuxGNU date 2026.03.22  21:43:27
 running   32 mpi-ranks, with    1 threads/rank
 distrk:  each k-point on   32 cores,    1 groups
 distr:  one band on NCORE=   8 cores,    4 groups


--------------------------------------------------------------------------------------------------------


 INCAR:
   SYSTEM = Ge slab HSE06 SCF
   NCORE = 8
   ISTART = 1
   ICHARG = 1
   ISPIN = 1
   ISYM = 0
   ENCUT = 450
   PREC = Normal
   ADDGRID = .TRUE.
   LWAVE = .TRUE.
   LCHARG = .TRUE.
   LREAL = Auto
   ISMEAR = 0
   SIGMA = 0.05
   EDIFF = 1E-5
   NELM = 100
   AMIX = 0.2
   BMIX = 0.0001
   AMIN = 0.01
   LDIPOL = .TRUE.
   IDIPOL = 3
   GGA = PE
   LHFCALC = .TRUE.
   AEXX = 0.25
   HFSCREEN = 0.2
   ALGO = ALL
   TIME = 0.15
   PRECFOCK = Normal
   HFRCUT = -1
   LORBIT = 11
   NEDOS = 3000

 POTCAR:    PAW_PBE Ge_d 03Jul2007                
 POTCAR:    PAW_PBE H 15Jun2001                   
 POTCAR:    PAW_PBE Ge_d 03Jul2007                
   VRHFIN =Ge: 3d4s4p                                                                               
   LEXCH  = PE                                                                                      
   EATOM  =  2596.2402 eV,  190.8183 Ry                                                             
                                                                                                    
   TITEL  = PAW_PBE Ge_d 03Jul2007                                                                  
   LULTRA =        F    use ultrasoft PP ?                                                          
   IUNSCR =        1    unscreen: 0-lin 1-nonlin 2-no                                               
   RPACOR =    2.000    partial core radius                                                         
   POMASS =   72.610; ZVAL   =   14.000    mass and valenz                                          
   RCORE  =    2.300    outmost cutoff radius                                                       
   RWIGS  =    2.300; RWIGS  =    1.217    wigner-seitz radius (au A)                               
   ENMAX  =  310.294; ENMIN  =  232.720 eV                                                          
   ICORE  =        3    local potential                                                             
   LCOR   =        T    correct aug charges                                                         
   LPAW   =        T    paw PP                                                                      
   EAUG   =  531.356                                                                                
   DEXC   =    0.000                                                                                
   RMAX   =    2.342    core radius for proj-oper                                                   
   RAUG   =    1.300    factor for augmentation sphere                                              
   RDEP   =    2.318    radius for radial grids                                                     
   RDEPT  =    1.783    core radius for aug-charge                                                  
                                                                                                    
   Atomic configuration                                                                             
    9 entries                                                                                       
     n  l   j            E        occ.                                                              
     1  0  0.50    -10959.8463   2.0000                                                             
     2  0  0.50     -1371.6056   2.0000                                                             
     2  1  1.50     -1198.4791   6.0000                                                             
     3  0  0.50      -168.4733   2.0000                                                             
     3  1  1.50      -115.6019   6.0000                                                             
     3  2  2.50       -29.3106  10.0000                                                             
     4  0  0.50       -11.7309   2.0000                                                             
     4  1  0.50        -3.8952   2.0000                                                             
     4  3  2.50        -4.0817   0.0000                                                             
   Description                                                                                      
     l       E           TYP  RCUT    TYP  RCUT                                                     
     2    -29.3105938     23  2.200                                                                 
     2    -13.6058260     23  2.200                                                                 
     0    -11.7309493     23  2.300                                                                 
     0     -7.4578696     23  2.300                                                                 
     1     -3.8952261     23  2.300                                                                 
     1      6.1178114     23  2.300                                                                 
     3     -1.3605826     23  2.300                                                                 
  local pseudopotential read in
  partial core-charges read in
  partial kinetic energy density read in
  atomic valenz-charges read in
  non local Contribution for L=           2  read in
    real space projection operators read in
  non local Contribution for L=           2  read in
    real space projection operators read in
  non local Contribution for L=           0  read in
    real space projection operators read in
  non local Contribution for L=           0  read in
    real space projection operators read in
  non local Contribution for L=           1  read in
    real space projection operators read in
  non local Contribution for L=           1  read in
    real space projection operators read in
    PAW grid and wavefunctions read in

   number of l-projection  operators is LMAX  =           6
   number of lm-projection operators is LMMAX =          18

 POTCAR:    PAW_PBE H 15Jun2001                   
   VRHFIN =H: ultrasoft test                                                                        
   LEXCH  = PE                                                                                      
   EATOM  =    12.4884 eV,    0.9179 Ry                                                             
                                                                                                    
   TITEL  = PAW_PBE H 15Jun2001                                                                     
   LULTRA =        F    use ultrasoft PP ?                                                          
   IUNSCR =        0    unscreen: 0-lin 1-nonlin 2-no                                               
   RPACOR =    0.000    partial core radius                                                         
   POMASS =    1.000; ZVAL   =    1.000    mass and valenz                                          
   RCORE  =    1.100    outmost cutoff radius                                                       
   RWIGS  =    0.700; RWIGS  =    0.370    wigner-seitz radius (au A)                               
   ENMAX  =  250.000; ENMIN  =  200.000 eV                                                          
   RCLOC  =    0.701    cutoff for local pot                                                        
   LCOR   =        T    correct aug charges                                                         
   LPAW   =        T    paw PP                                                                      
   EAUG   =  400.000                                                                                
   RMAX   =    1.123    core radius for proj-oper                                                   
   RAUG   =    1.200    factor for augmentation sphere                                              
   RDEP   =    1.112    radius for radial grids                                                     
   RDEPT  =    0.926    core radius for aug-charge                                                  
                                                                                                    
   Atomic configuration                                                                             
    2 entries                                                                                       
     n  l   j            E        occ.                                                              
     1  0  0.50        -6.4927   1.0000                                                             
     2  1  0.50        -3.4015   0.0000                                                             
   Description                                                                                      
     l       E           TYP  RCUT    TYP  RCUT                                                     
     0     -6.4927494     23  1.100                                                                 
     0      6.8029130     23  1.100                                                                 
     1     -4.0817478     23  1.100                                                                 
  local pseudopotential read in
  atomic valenz-charges read in
  non local Contribution for L=           0  read in
    real space projection operators read in
  non local Contribution for L=           0  read in
    real space projection operators read in
  non local Contribution for L=           1  read in
    real space projection operators read in
    PAW grid and wavefunctions read in

   number of l-projection  operators is LMAX  =           3
   number of lm-projection operators is LMMAX =           5

 Optimization of the real space projectors (new method)

 maximal supplied QI-value         = 16.25
 optimisation between [QCUT,QGAM] = [ 10.73, 21.61] = [ 32.22,130.83] Ry 
 Optimized for a Real-space Cutoff    1.42 Angstroem

   l    n(q)    QCUT    max X(q) W(low)/X(q) W(high)/X(q)  e(spline) 
   2      8    10.726     8.936    0.20E-03    0.34E-03    0.19E-06
   2      8    10.726     8.183    0.26E-03    0.45E-03    0.28E-06
   0      9    10.726    62.777    0.62E-04    0.14E-04    0.77E-07
   0      9    10.726    50.556    0.60E-04    0.14E-04    0.75E-07
   1      9    10.726    38.422    0.41E-04    0.12E-03    0.11E-06
   1      9    10.726    22.623    0.37E-04    0.11E-03    0.11E-06
 Optimization of the real space projectors (new method)

 maximal supplied QI-value         = 34.20
 optimisation between [QCUT,QGAM] = [ 10.60, 21.55] = [ 31.48,130.03] Ry 
 Optimized for a Real-space Cutoff    1.23 Angstroem

   l    n(q)    QCUT    max X(q) W(low)/X(q) W(high)/X(q)  e(spline) 
   0      8    10.603    19.460    0.37E-03    0.59E-03    0.23E-06
   0      8    10.603    12.209    0.35E-03    0.56E-03    0.22E-06
   1      7    10.603     4.655    0.70E-04    0.28E-03    0.29E-06
  PAW_PBE Ge_d 03Jul2007                :
 energy of atom  1       EATOM=-2596.2402
 kinetic energy error for atom=    0.0077 (will be added to EATOM!!)
  PAW_PBE H 15Jun2001                   :
 energy of atom  2       EATOM=  -12.4884
 kinetic energy error for atom=    0.0045 (will be added to EATOM!!)


 POSCAR: Converted by xsd2pos.py
  positions in direct lattice
  velocities in cartesian coordinates
 exchange correlation table for  LEXCH =        8
   RHO(1)=    0.500       N(1)  =     2000
   RHO(2)=  100.500       N(2)  =     4000



--------------------------------------------------------------------------------------------------------


 ion  position               nearest neighbor table
   1  1.000  0.500  0.367-  17 2.46  11 2.46  15 2.49  13 2.49
   2  0.000  0.500  0.576-  12 2.44  14 2.44  16 2.44  18 2.44
   3  0.500  1.000  0.367-  17 2.46  11 2.46  15 2.49  13 2.49
   4  0.500  0.000  0.576-  12 2.44  14 2.44  16 2.44  18 2.44
   5  1.000  0.000  0.258-  17 2.52  11 2.52
   6  0.000  0.000  0.475-  12 2.44  18 2.44  13 2.48  15 2.48
   7  0.000  0.000  0.678-  19 1.50  20 1.50  14 2.44  16 2.44
   8  0.500  0.500  0.258-  11 2.52  17 2.52
   9  0.500  0.500  0.475-  12 2.44  18 2.44  15 2.48  13 2.48
  10  0.500  0.500  0.678-  21 1.50  22 1.50  14 2.44  16 2.44
  11  0.250  0.250  0.314-   1 2.46   3 2.46   8 2.52   5 2.52
  12  0.250  0.250  0.525-   6 2.44   9 2.44   2 2.44   4 2.44
  13  0.250  0.750  0.421-   9 2.48   6 2.48   1 2.49   3 2.49
  14  0.250  0.750  0.627-   2 2.44   4 2.44   7 2.44  10 2.44
  15  0.750  0.250  0.421-   9 2.48   6 2.48   1 2.49   3 2.49
  16  0.750  0.250  0.627-   2 2.44   4 2.44   7 2.44  10 2.44
  17  0.750  0.750  0.314-   3 2.46   1 2.46   5 2.52   8 2.52
  18  0.750  0.750  0.525-   6 2.44   9 2.44   2 2.44   4 2.44
  19  0.846  0.846  0.709-   7 1.50
  20  0.154  0.154  0.709-   7 1.50
  21  0.346  0.346  0.709-  10 1.50
  22  0.654  0.654  0.709-  10 1.50


IMPORTANT INFORMATION: All symmetrisations will be switched off!
NOSYMM: (Re-)initialisation of all symmetry stuff for point group C_1.


----------------------------------------------------------------------------------------

                                     Primitive cell                                     

  volume of cell :     874.8731

  direct lattice vectors                    reciprocal lattice vectors
     5.624500000  0.000000000  0.000000000     0.177793582  0.000000000  0.000000000
     0.000000000  5.624500000  0.000000000     0.000000000  0.177793582  0.000000000
     0.000000000  0.000000000 27.655225140     0.000000000  0.000000000  0.036159532

  length of vectors
     5.624500000  5.624500000 27.655225140     0.177793582  0.177793582  0.036159532

  position of ions in fractional coordinates (direct lattice)
     0.999999681  0.499999170  0.366826133
     0.000000000  0.500000000  0.576265420
     0.500000027  0.999999694  0.366825926
     0.500000000  0.000000000  0.576265420
     0.999991375  0.000003364  0.258082177
     0.000000000  0.000000000  0.474575780
     0.000000000  0.000000000  0.677955070
     0.500004550  0.499990498  0.258082349
     0.500000000  0.500000000  0.474575780
     0.500000000  0.500000000  0.677955070
     0.249997381  0.249997523  0.314222531
     0.250000000  0.250000000  0.525420600
     0.249999869  0.749999831  0.421231291
     0.250000000  0.750000000  0.627110240
     0.749999418  0.249999497  0.421231288
     0.750000000  0.250000000  0.627110240
     0.749998301  0.749997402  0.314222586
     0.750000000  0.750000000  0.525420600
     0.846026280  0.846026280  0.709270160
     0.153973720  0.153973720  0.709270160
     0.346026280  0.346026280  0.709270160
     0.653973720  0.653973720  0.709270160

  ion indices of the primitive-cell ions
   primitive index   ion index
                 1           1
                 2           2
                 3           3
                 4           4
                 5           5
                 6           6
                 7           7
                 8           8
                 9           9
                10          10
                11          11
                12          12
                13          13
                14          14
                15          15
                16          16
                17          17
                18          18
                19          19
                20          20
                21          21
                22          22

----------------------------------------------------------------------------------------



 KPOINTS: Ge slab regular mesh                    

Automatic generation of k-mesh.
 Grid dimensions read from file:
 generate k-points for:    4    4    1

 Generating k-lattice:

  Cartesian coordinates                     Fractional coordinates (reciprocal lattice)
     0.044448395  0.000000000  0.000000000     0.250000000  0.000000000  0.000000000
     0.000000000  0.044448395  0.000000000     0.000000000  0.250000000  0.000000000
     0.000000000  0.000000000  0.036159532     0.000000000  0.000000000  1.000000000

  Length of vectors
     0.044448395  0.044448395  0.036159532

  Shift w.r.t. Gamma in fractional coordinates (k-lattice)
     0.000000000  0.000000000  0.000000000

 
 Subroutine IBZKPT returns following result:
 ===========================================
 
 Found     10 irreducible k-points:
 
 Following reciprocal coordinates:
            Coordinates               Weight
  0.000000  0.000000  0.000000      1.000000
  0.250000  0.000000  0.000000      2.000000
  0.000000  0.250000  0.000000      2.000000
  0.500000  0.000000  0.000000      1.000000
  0.000000  0.500000  0.000000      1.000000
  0.250000  0.250000  0.000000      2.000000
 -0.250000  0.250000  0.000000      2.000000
  0.500000  0.250000  0.000000      2.000000
 -0.250000  0.500000  0.000000      2.000000
  0.500000  0.500000  0.000000      1.000000
 
 Following cartesian coordinates:
            Coordinates               Weight
  0.000000  0.000000  0.000000      1.000000
  0.044448  0.000000  0.000000      2.000000
  0.000000  0.044448  0.000000      2.000000
  0.088897  0.000000  0.000000      1.000000
  0.000000  0.088897  0.000000      1.000000
  0.044448  0.044448  0.000000      2.000000
 -0.044448  0.044448  0.000000      2.000000
  0.088897  0.044448  0.000000      2.000000
 -0.044448  0.088897  0.000000      2.000000
  0.088897  0.088897  0.000000      1.000000
 
 
 Subroutine IBZKPT_HF returns following result:
 ==============================================
 
 Found     16 k-points in 1st BZ
 the following     16 k-points will be used (e.g. in the exchange kernel)
 Following reciprocal coordinates:   # in IRBZ
  0.000000  0.000000  0.000000    0.06250000   1 t-inv F
  0.250000  0.000000  0.000000    0.06250000   2 t-inv F
  0.000000  0.250000  0.000000    0.06250000   3 t-inv F
  0.500000  0.000000  0.000000    0.06250000   4 t-inv F
  0.000000  0.500000  0.000000    0.06250000   5 t-inv F
  0.250000  0.250000  0.000000    0.06250000   6 t-inv F
 -0.250000  0.250000  0.000000    0.06250000   7 t-inv F
  0.500000  0.250000  0.000000    0.06250000   8 t-inv F
 -0.250000  0.500000  0.000000    0.06250000   9 t-inv F
  0.500000  0.500000  0.000000    0.06250000  10 t-inv F
 -0.250000 -0.000000 -0.000000    0.06250000   2 t-inv T
 -0.000000 -0.250000 -0.000000    0.06250000   3 t-inv T
 -0.250000 -0.250000 -0.000000    0.06250000   6 t-inv T
  0.250000 -0.250000 -0.000000    0.06250000   7 t-inv T
 -0.500000 -0.250000 -0.000000    0.06250000   8 t-inv T
  0.250000 -0.500000 -0.000000    0.06250000   9 t-inv T


--------------------------------------------------------------------------------------------------------




 Dimension of arrays:
   k-points           NKPTS =     10   k-points in BZ     NKDIM =     16   number of bands    NBANDS=    156
   number of dos      NEDOS =   3000   number of ions     NIONS =     22
   non local maximal  LDIM  =      6   non local SUM 2l+1 LMDIM =     18
   total plane-waves  NPLWV = 129600
   max r-space proj   IRMAX =   1835   max aug-charges    IRDMAX=  40051
   dimension x,y,z NGX =    30 NGY =   30 NGZ =  144
   dimension x,y,z NGXF=    60 NGYF=   60 NGZF=  288
   support grid    NGXF=   120 NGYF=  120 NGZF=  576
   ions per type =              18   4
   NGX,Y,Z   is equivalent  to a cutoff of   8.87,  8.87,  8.66 a.u.
   NGXF,Y,Z  is equivalent  to a cutoff of  17.73, 17.73, 17.31 a.u.

 SYSTEM =  Ge slab HSE06 SCF                       
 POSCAR =  Converted by xsd2pos.py                 

 Startparameter for this run:
   NWRITE =      2    write-flag & timer
   PREC   = normal    normal or accurate (medium, high low for compatibility)
   ISTART =      1    job   : 0-new  1-cont  2-samecut
   ICHARG =      1    charge: 1-file 2-atom 10-const
   ISPIN  =      1    spin polarized calculation?
   LNONCOLLINEAR =      F non collinear calculations
   LSORBIT =      F    spin-orbit coupling
   INIWAV =      1    electr: 0-lowe 1-rand  2-diag
   LASPH  =      F    aspherical Exc in radial PAW
 Electronic Relaxation 1
   ENCUT  =  450.0 eV  33.07 Ry    5.75 a.u.   9.73  9.73 47.83*2*pi/ulx,y,z
   ENINI  =  450.0     initial cutoff
   ENAUG  =  531.4 eV  augmentation charge cutoff
   NELM   =    100;   NELMIN=  2; NELMDL=  0     # of ELM steps 
   EDIFF  = 0.1E-04   stopping-criterion for ELM
   LREAL  =      T    real-space projection
   NLSPLINE    = F    spline interpolate recip. space projectors
   LCOMPAT=      F    compatible to vasp.4.4
   GGA_COMPAT  = T    GGA compatible to vasp.4.4-vasp.4.6
   LMAXPAW     = -100 max onsite density
   LMAXMIX     =    2 max onsite mixed and CHGCAR
   VOSKOWN=      0    Vosko Wilk Nusair interpolation
   ROPT   =   -0.00050  -0.00050
 Ionic relaxation
   EDIFFG = 0.1E-03   stopping-criterion for IOM
   NSW    =      0    number of steps for IOM
   NBLOCK =      1;   KBLOCK =      1    inner block; outer block 
   IBRION =     -1    ionic relax: 0-MD 1-quasi-New 2-CG
   NFREE  =      0    steps in history (QN), initial steepest desc. (CG)
   ISIF   =      0    stress and relaxation
   IWAVPR =     10    prediction:  0-non 1-charg 2-wave 3-comb
   ISYM   =      0    0-nonsym 1-usesym 2-fastsym
   LCORR  =      T    Harris-Foulkes like correction to forces

   POTIM  = 0.5000    time-step for ionic-motion
   TEIN   =    0.0    initial temperature
   TEBEG  =    0.0;   TEEND  =   0.0 temperature during run
   SMASS  =  -3.00    Nose mass-parameter (am)
   estimated Nose-frequenzy (Omega)   =  0.10E-29 period in steps = 0.13E+47 mass=  -0.723E-27a.u.
   SCALEE = 1.0000    scale energy and forces
   NPACO  =    256;   APACO  = 10.0  distance and # of slots for P.C.
   PSTRESS=    0.0 pullay stress

  Mass of Ions in am
   POMASS =  72.61  1.00
  Ionic Valenz
   ZVAL   =  14.00  1.00
  Atomic Wigner-Seitz radii
   RWIGS  =  -1.00 -1.00
  virtual crystal weights 
   VCA    =   1.00  1.00
   NELECT =     256.0000    total number of electrons
   NUPDOWN=      -1.0000    fix difference up-down

 DOS related values:
   EMIN   =  10.00;   EMAX   =-10.00  energy-range for DOS
   EFERMI =   0.00
   ISMEAR =     0;   SIGMA  =   0.05  broadening in eV -4-tet -1-fermi 0-gaus

 Electronic relaxation 2 (details)
   IALGO  =     58    algorithm
   LDIAG  =      T    sub-space diagonalisation (order eigenvalues)
   LSUBROT=      F    optimize rotation matrix (better conditioning)
   TURBO    =      0    0=normal 1=particle mesh
   IRESTART =      0    0=no restart 2=restart with 2 vectors
   NREBOOT  =      0    no. of reboots
   NMIN     =      0    reboot dimension
   EREF     =   0.00    reference energy to select bands
   IMIX   =      4    mixing-type and parameters
     AMIX     =   0.20;   BMIX     =  0.00
     AMIX_MAG =   0.80;   BMIX_MAG =  0.00
     AMIN     =   0.01
     WC   =   100.;   INIMIX=   1;  MIXPRE=   1;  MAXMIX= -45

 Intra band minimization:
   WEIMIN = 0.0000     energy-eigenvalue tresh-hold
   EBREAK =  0.16E-07  absolut break condition
   DEPER  =   0.30     relativ break condition  

   TIME   =   0.15     timestep for ELM

  volume/ion in A,a.u.               =      39.77       268.36
  Fermi-wavevector in a.u.,A,eV,Ry     =   1.086859  2.053865 16.072047  1.181262
  Thomas-Fermi vector in A             =   2.223005

 Write flags
   LWAVE        =      T    write WAVECAR
   LDOWNSAMPLE  =      F    k-point downsampling of WAVECAR
   LCHARG       =      T    write CHGCAR
   LVTOT        =      F    write LOCPOT, total local potential
   LVHAR        =      F    write LOCPOT, Hartree potential only
   LELF         =      F    write electronic localiz. function (ELF)
   LORBIT       =     11    0 simple, 1 ext, 2 COOP (PROOUT), +10 PAW based schemes


 Dipole corrections
   LMONO  =      F    monopole corrections only (constant potential shift)
   LDIPOL =      T    correct potential (dipole corrections)
   IDIPOL =      3    1-x, 2-y, 3-z, 4-all directions 
   EPSILON=  1.0000000 bulk dielectric constant

 Exchange correlation treatment:
   GGA     =    PE    GGA type
   LEXCH   =     8    internal setting for exchange type
   LIBXC   =     F    Libxc                    
   VOSKOWN =     0    Vosko Wilk Nusair interpolation
   EXXOEP  =     0    0=HF, 1=EXX-LHF (local Hartree Fock) 2=EXX OEP
   LHFCALC =     T    Hartree Fock is set to
   LSYMGRAD=     F    symmetrize gradient (conserves proper symmetry)
   PRECFOCK=normal    Normal, Fast or Accurate (Low or Medium for compatibility)
   LRHFCALC=     F    long range Hartree Fock
   LRSCOR  =     F    long range correlation only (use DFT for short range part)
   LTHOMAS =     F    Thomas Fermi screening in HF
   LMODELHF=     F    short range full HF, long range fraction AEXX
   FOCKCORR=     1    mode to apply convergence corrections
   LFOCKACE=     T    use Adeptively-Compressed-Exchange operator
   ENCUT4O =  -1.0   cutoff for four orbital integrals eV
   LMAXFOCK=     4    L truncation for augmentation on plane wave grid
   LMAXFOCKAE=  -1    L truncation for all-electron charge restoration on plane wave grid
   NMAXFOCKAE=   1    number of basis functions for all-electron charge restoration
   LFOCKAEDFT=     F  apply the AE augmentation even for DFT
   NKREDX  =     1    reduce k-point grid by
   NKREDY  =     1    reduce k-point grid by
   NKREDZ  =     1    reduce k-point grid by
   SHIFTRED=     F    shift reduced grid of Gamma
   HFKIDENT=     F    idential grid for each k-point
   ODDONLY =     F    use only odd q-grid points
   EVENONLY=     F    use only even q-grid points
   HFALPHA =   -1.0000 decay constant for conv. correction
   MCALPHA =    0.0000 extent of test-charge in conv. correction in multipole expansion
   AEXX    =    0.2500 exact exchange contribution
   HFSCREEN=    0.2000 screening length (either q_TF or 0.3 A-1)
   HFSCREENC=   0.2000 screening length for correlation (either q_TF or 0.3 A-1)
   HFRCUT  =   -1.0000 spherical cutoff for potential kernel
   ALDAX   =    0.7500 LDA exchange part
   AGGAX   =    0.7500 GGA exchange part
   ALDAC   =    1.0000 LDA correlation
   AGGAC   =    1.0000 GGA correlation
   ENCUTFOCK=  -1.0 apply spherical cutoff to Coloumb kernel
   NBANDSGWLOW=     1    first orbital included in HF term
   NBLOCK_FOCK=    64    blocking factor in FOCK_ACC

 Linear response parameters
   LEPSILON=     F    determine dielectric tensor
   LRPA    =     F    only Hartree local field effects (RPA)
   LNABLA  =     F    use nabla operator in PAW spheres
   LVEL    =     F    velocity operator in full k-point grid
   CSHIFT  =0.1000    complex shift for real part using Kramers Kronig
   OMEGAMAX=  -1.0    maximum frequency
   DEG_THRESHOLD= 0.2000000E-02 threshold for treating states as degnerate
   RTIME   =   -0.100 relaxation time in fs
  (WPLASMAI=    0.000 imaginary part of plasma frequency in eV, 0.658/RTIME)
   DFIELD  = 0.0000000 0.0000000 0.0000000 field for delta impulse in time

  Optional k-point grid parameters
   LKPOINTS_OPT  =     F    use optional k-point grid
   KPOINTS_OPT_MODE=     1    mode for optional k-point grid

 Orbital magnetization related:
   ORBITALMAG=     F  switch on orbital magnetization
   LCHIMAG   =     F  perturbation theory with respect to B field
   DQ        =  0.001000  dq finite difference perturbation B field
   LLRAUG    =     F  two centre corrections for induced B field



--------------------------------------------------------------------------------------------------------


 Static calculation
 charge density and potential will be updated during run
 non-spin polarized calculation
 Conjugate gradient for all bands (Freysoldt, et al. PRB 79, 241103 (2009))
 preconditioned conjugated gradient                                        
 perform sub-space diagonalisation
    before iterative eigenvector-optimisation
 modified Broyden-mixing scheme, WC =      100.0
 initial mixing is a Kerker type mixing with AMIX =  0.2000 and BMIX =      0.0001
 Hartree-type preconditioning will be used
 using additional bands           28
 real space projection scheme for non local part
 use partial core corrections
 no Harris-corrections to forces 
 use gradient corrections 
 use of overlap-Matrix (Vanderbilt PP)
 Gauss-broadening in eV      SIGMA  =   0.05


--------------------------------------------------------------------------------------------------------


  energy-cutoff  :      450.00
  volume of cell :      874.87
      direct lattice vectors                 reciprocal lattice vectors
     5.624500000  0.000000000  0.000000000     0.177793582  0.000000000  0.000000000
     0.000000000  5.624500000  0.000000000     0.000000000  0.177793582  0.000000000
     0.000000000  0.000000000 27.655225140     0.000000000  0.000000000  0.036159532

  length of vectors
     5.624500000  5.624500000 27.655225140     0.177793582  0.177793582  0.036159532



 old parameters found on file WAVECAR:
  energy-cutoff  :      450.00
  volume of cell :      874.87
      direct lattice vectors                 reciprocal lattice vectors
     5.624500000  0.000000000  0.000000000     0.177793582  0.000000000  0.000000000
     0.000000000  5.624500000  0.000000000     0.000000000  0.177793582  0.000000000
     0.000000000  0.000000000 27.655225140     0.000000000  0.000000000  0.036159532

  length of vectors


 k-points in units of 2pi/SCALE and weight: Ge slab regular mesh                    
   0.00000000  0.00000000  0.00000000       0.062
   0.04444840  0.00000000  0.00000000       0.125
   0.00000000  0.04444840  0.00000000       0.125
   0.08889679  0.00000000  0.00000000       0.062
   0.00000000  0.08889679  0.00000000       0.062
   0.04444840  0.04444840  0.00000000       0.125
  -0.04444840  0.04444840  0.00000000       0.125
   0.08889679  0.04444840  0.00000000       0.125
  -0.04444840  0.08889679  0.00000000       0.125
   0.08889679  0.08889679  0.00000000       0.062

 k-points in reciprocal lattice and weights: Ge slab regular mesh                    
   0.00000000  0.00000000  0.00000000       0.062
   0.25000000  0.00000000  0.00000000       0.125
   0.00000000  0.25000000  0.00000000       0.125
   0.50000000  0.00000000  0.00000000       0.062
   0.00000000  0.50000000  0.00000000       0.062
   0.25000000  0.25000000  0.00000000       0.125
  -0.25000000  0.25000000  0.00000000       0.125
   0.50000000  0.25000000  0.00000000       0.125
  -0.25000000  0.50000000  0.00000000       0.125
   0.50000000  0.50000000  0.00000000       0.062

 position of ions in fractional coordinates (direct lattice) 
   0.99999968  0.49999917  0.36682613
   0.00000000  0.50000000  0.57626542
   0.50000003  0.99999969  0.36682593
   0.50000000  0.00000000  0.57626542
   0.99999137  0.00000336  0.25808218
   0.00000000  0.00000000  0.47457578
   0.00000000  0.00000000  0.67795507
   0.50000455  0.49999050  0.25808235
   0.50000000  0.50000000  0.47457578
   0.50000000  0.50000000  0.67795507
   0.24999738  0.24999752  0.31422253
   0.25000000  0.25000000  0.52542060
   0.24999987  0.74999983  0.42123129
   0.25000000  0.75000000  0.62711024
   0.74999942  0.24999950  0.42123129
   0.75000000  0.25000000  0.62711024
   0.74999830  0.74999740  0.31422259
   0.75000000  0.75000000  0.52542060
   0.84602628  0.84602628  0.70927016
   0.15397372  0.15397372  0.70927016
   0.34602628  0.34602628  0.70927016
   0.65397372  0.65397372  0.70927016

 position of ions in cartesian coordinates  (Angst):
   5.62449821  2.81224533 10.14465930
   0.00000000  2.81225000 15.93674993
   2.81225015  5.62449828 10.14465358
   2.81225000  0.00000000 15.93674993
   5.62445149  0.00001892  7.13732072
   0.00000000  0.00000000 13.12450004
   0.00000000  0.00000000 18.74900010
   2.81227559  2.81219656  7.13732547
   2.81225000  2.81225000 13.12450004
   2.81225000  2.81225000 18.74900010
   1.40611027  1.40611107  8.68989484
   1.40612500  1.40612500 14.53062499
   1.40612426  4.21837405 11.64924618
   1.40612500  4.21837500 17.34287487
   4.21837173  1.40612217 11.64924612
   4.21837500  1.40612500 17.34287487
   4.21836544  4.21836039  8.68989636
   4.21837500  4.21837500 14.53062499
   4.75847481  4.75847481 19.61502596
   0.86602519  0.86602519 19.61502596
   1.94622481  1.94622481 19.61502596
   3.67827519  3.67827519 19.61502596



--------------------------------------------------------------------------------------------------------


 k-point   1 :   0.0000 0.0000 0.0000  plane waves:   18987
 k-point   2 :   0.2500 0.0000 0.0000  plane waves:   18969
 k-point   3 :   0.0000 0.2500 0.0000  plane waves:   18969
 k-point   4 :   0.5000 0.0000 0.0000  plane waves:   19012
 k-point   5 :   0.0000 0.5000 0.0000  plane waves:   19012
 k-point   6 :   0.2500 0.2500 0.0000  plane waves:   18936
 k-point   7 :  -0.2500 0.2500 0.0000  plane waves:   18936
 k-point   8 :   0.5000 0.2500 0.0000  plane waves:   18922
 k-point   9 :  -0.2500 0.5000 0.0000  plane waves:   18922
 k-point  10 :   0.5000 0.5000 0.0000  plane waves:   19012

 maximum and minimum number of plane-waves per node :      2415     2334

 maximum number of plane-waves:     19012
 maximum index in each direction: 
   IXMAX=    9   IYMAX=    9   IZMAX=   47
   IXMIN=  -10   IYMIN=  -10   IZMIN=  -47


 real space projection operators:
  total allocation   :       4579.22 KBytes
  max/ min on nodes  :        679.58        364.36


 parallel 3D FFT for wavefunctions:
    minimum data exchange during FFTs selected (reduces bandwidth)
 parallel 3D FFT for charge:
    minimum data exchange during FFTs selected (reduces bandwidth)


 Radii for the augmentation spheres in the non-local exchange
 for species   1 augmentation radius   1.239 (default was   0.991)
       energy cutoff for augmentation   1800.0
 for species   2 augmentation radius   0.650 (default was   0.520)
       energy cutoff for augmentation   1800.0

 real space projection operators:
  total allocation   :       4205.17 KBytes
  max/ min on nodes  :        646.64        343.77

 Maximum index for augmentation-charges in exchange          159
 HFRCUT set to (new)   14.950606281471241     
  SETUP_FOCK is finished

 total amount of memory used by VASP MPI-rank0    87618. kBytes
=======================================================================

   base      :      30000. kBytes
   nonlr-proj:       2412. kBytes
   fftplans  :       6033. kBytes
   grid      :       2638. kBytes
   one-center:         46. kBytes
   HF        :         64. kBytes
   wavefun   :      46425. kBytes

     INWAV:  cpu time      1.1125: real time      1.1125
 Broyden mixing: mesh for mixing (old mesh)
   NGX = 19   NGY = 19   NGZ = 95
  (NGX  = 60   NGY  = 60   NGZ  =288)
  gives a total of  34295 points

 initial charge density was supplied:
 number of electron     256.0000056 magnetization 
 charge density for first step will be calculated from the start-wavefunctions


--------------------------------------------------------------------------------------------------------


 Maximum index for non-local projection operator          242
 Maximum index for augmentation-charges         1373 (set IRDMAX)


--------------------------------------------------------------------------------------------------------


 initial charge from wavefunction
 First call to EWALD:  gamma=   0.185
 Maximum number of real-space cells 4x 4x 1
 Maximum number of reciprocal cells 2x 2x 7

    FEWALD:  cpu time      0.0010: real time      0.0010


--------------------------------------- Iteration      1(   1)  ---------------------------------------


    POTLOK:  cpu time      0.0532: real time      0.0532
    SETDIJ:  cpu time      0.1149: real time      0.1149
    TRIAL :  cpu time   1412.7989: real time   1412.8380
    CORREC:  cpu time   1408.6145: real time   1408.6587
    CHARGE:  cpu time      0.1166: real time      0.1166
    --------------------------------------------
      LOOP:  cpu time   2821.7231: real time   2821.8065

 eigenvalue-minimisations  :     0
 total energy-change (2. order) :-0.1072124E+03  (-0.5048230E-02)
 number of electron     256.0000056 magnetization 
 augmentation part      152.8187947 magnetization 

 DIPCOR: dipole corrections for dipol
 direction  3 min pos   277,
 dipolmoment           0.000000      0.000000     -0.195477 electrons x Angstroem
 Tr[quadrupol]     -1567.420437

 energy correction for charged system         0.000000 eV
 dipol+quadrupol energy correction           -0.003952 eV
 added-field ion interaction          4.775609 eV  (added to PSCEN)


 Free energy of the ion-electron system (eV)
  ---------------------------------------------------
  alpha Z        PSCENC =       562.15283639
  Ewald energy   TEWEN  =     94864.95685244
  -Hartree energ DENC   =   -130911.50106257
  -exchange      EXHF   =       693.24361654
  -V(xc)+E(xc)   XCENC  =      1007.46732054
  PAW double counting   =     43000.79483430   -50544.54460062
  entropy T*S    EENTRO =        -0.00789686
  eigenvalues    EBANDS =     -5529.88125662
  atomic energy  EATOM  =     46750.10682825
  ---------------------------------------------------
  free energy    TOTEN  =      -107.21238791 eV

  energy without entropy =     -107.20449105  energy(sigma->0) =     -107.20843948
  exchange ACFDT corr.  =        -0.00655125  see jH, gK, PRB 81, 115126


--------------------------------------------------------------------------------------------------------




--------------------------------------- Iteration      1(   2)  ---------------------------------------


    POTLOK:  cpu time      0.0521: real time      0.0521
    SETDIJ:  cpu time      0.1209: real time      0.1209
    TRIAL :  cpu time   1405.0607: real time   1405.1259
    CORREC:  cpu time   1411.3466: real time   1411.4026
    CHARGE:  cpu time      0.1175: real time      0.1175
    --------------------------------------------
      LOOP:  cpu time   2816.6987: real time   2816.8200

 eigenvalue-minimisations  :     0
 total energy-change (2. order) :-0.5049527E-02  (-0.5006120E-03)
 number of electron     256.0000056 magnetization 
 augmentation part      152.8188147 magnetization 

 DIPCOR: dipole corrections for dipol
 direction  3 min pos   277,
 dipolmoment           0.000000      0.000000     -0.184101 electrons x Angstroem
 Tr[quadrupol]     -1567.337242

 energy correction for charged system         0.000000 eV
 dipol+quadrupol energy correction           -0.003505 eV
 added-field ion interaction          4.497687 eV  (added to PSCEN)


 Free energy of the ion-electron system (eV)
  ---------------------------------------------------
  alpha Z        PSCENC =       558.62763756
  Ewald energy   TEWEN  =     94864.95685244
  -Hartree energ DENC   =   -130918.69608389
  -exchange      EXHF   =       693.24850317
  -V(xc)+E(xc)   XCENC  =      1007.47352087
  PAW double counting   =     43000.84151292   -50544.65921398
  entropy T*S    EENTRO =        -0.00799084
  eigenvalues    EBANDS =     -5519.10909792
  atomic energy  EATOM  =     46750.10682825
  ---------------------------------------------------
  free energy    TOTEN  =      -107.21743744 eV

  energy without entropy =     -107.20944660  energy(sigma->0) =     -107.21344202
  exchange ACFDT corr.  =        -0.00671658  see jH, gK, PRB 81, 115126


--------------------------------------------------------------------------------------------------------




--------------------------------------- Iteration      1(   3)  ---------------------------------------


    POTLOK:  cpu time      0.0524: real time      0.0524
    SETDIJ:  cpu time      0.1137: real time      0.1137
    TRIAL :  cpu time   1411.5146: real time   1411.5644
    CORREC:  cpu time   1413.4799: real time   1413.5463
    CHARGE:  cpu time      0.1146: real time      0.1146
    --------------------------------------------
      LOOP:  cpu time   2825.2757: real time   2825.3919

 eigenvalue-minimisations  :     0
 total energy-change (2. order) :-0.5020397E-03  (-0.1192275E-03)
 number of electron     256.0000056 magnetization 
 augmentation part      152.8189678 magnetization 

 DIPCOR: dipole corrections for dipol
 direction  3 min pos   277,
 dipolmoment           0.000000      0.000000     -0.174620 electrons x Angstroem
 Tr[quadrupol]     -1567.237955

 energy correction for charged system         0.000000 eV
 dipol+quadrupol energy correction           -0.003153 eV
 added-field ion interaction          4.266064 eV  (added to PSCEN)


 Free energy of the ion-electron system (eV)
  ---------------------------------------------------
  alpha Z        PSCENC =       558.25071106
  Ewald energy   TEWEN  =     94864.95685244
  -Hartree energ DENC   =   -130912.94745043
  -exchange      EXHF   =       693.24725122
  -V(xc)+E(xc)   XCENC  =      1007.47225577
  PAW double counting   =     43000.21956978   -50544.01593095
  entropy T*S    EENTRO =        -0.00809208
  eigenvalues    EBANDS =     -5524.50003578
  atomic energy  EATOM  =     46750.10682825
  ---------------------------------------------------
  free energy    TOTEN  =      -107.21793948 eV

  energy without entropy =     -107.20984740  energy(sigma->0) =     -107.21389344
  exchange ACFDT corr.  =        -0.00680601  see jH, gK, PRB 81, 115126


--------------------------------------------------------------------------------------------------------




--------------------------------------- Iteration      1(   4)  ---------------------------------------


    POTLOK:  cpu time      0.0514: real time      0.0514
    SETDIJ:  cpu time      0.1152: real time      0.1152
    TRIAL :  cpu time   1409.7612: real time   1409.8401
    CORREC:  cpu time   1415.6617: real time   1415.7175
    CHARGE:  cpu time      0.1147: real time      0.1147
    --------------------------------------------
      LOOP:  cpu time   2825.7046: real time   2825.8394

 eigenvalue-minimisations  :     0
 total energy-change (2. order) :-0.1186591E-03  (-0.4240645E-04)
 number of electron     256.0000056 magnetization 
 augmentation part      152.8180252 magnetization 

 DIPCOR: dipole corrections for dipol
 direction  3 min pos   277,
 dipolmoment           0.000000      0.000000     -0.171828 electrons x Angstroem
 Tr[quadrupol]     -1567.281729

 energy correction for charged system         0.000000 eV
 dipol+quadrupol energy correction           -0.003053 eV
 added-field ion interaction          4.197833 eV  (added to PSCEN)


 Free energy of the ion-electron system (eV)
  ---------------------------------------------------
  alpha Z        PSCENC =       558.21114691
  Ewald energy   TEWEN  =     94864.95685244
  -Hartree energ DENC   =   -130914.50990528
  -exchange      EXHF   =       693.24908556
  -V(xc)+E(xc)   XCENC  =      1007.47513895
  PAW double counting   =     43000.40351305   -50544.26295982
  entropy T*S    EENTRO =        -0.00816025
  eigenvalues    EBANDS =     -5522.83966613
  atomic energy  EATOM  =     46750.10682825
  ---------------------------------------------------
  free energy    TOTEN  =      -107.21805813 eV

  energy without entropy =     -107.20989788  energy(sigma->0) =     -107.21397801
  exchange ACFDT corr.  =        -0.00690511  see jH, gK, PRB 81, 115126


--------------------------------------------------------------------------------------------------------




--------------------------------------- Iteration      1(   5)  ---------------------------------------


    POTLOK:  cpu time      0.0521: real time      0.0521
    SETDIJ:  cpu time      0.1125: real time      0.1125
    TRIAL :  cpu time   1419.0750: real time   1419.1240
    CORREC:  cpu time   1415.0962: real time   1415.1364
    CHARGE:  cpu time      0.1157: real time      0.1157
    --------------------------------------------
      LOOP:  cpu time   2834.4519: real time   2834.5411

 eigenvalue-minimisations  :     0
 total energy-change (2. order) :-0.4275305E-04  (-0.2321142E-04)
 number of electron     256.0000056 magnetization 
 augmentation part      152.8184993 magnetization 

 DIPCOR: dipole corrections for dipol
 direction  3 min pos   277,
 dipolmoment           0.000000      0.000000     -0.170534 electrons x Angstroem
 Tr[quadrupol]     -1567.280240

 energy correction for charged system         0.000000 eV
 dipol+quadrupol energy correction           -0.003008 eV
 added-field ion interaction          4.166233 eV  (added to PSCEN)


 Free energy of the ion-electron system (eV)
  ---------------------------------------------------
  alpha Z        PSCENC =       558.11744207
  Ewald energy   TEWEN  =     94864.95685244
  -Hartree energ DENC   =   -130914.92745036
  -exchange      EXHF   =       693.24834373
  -V(xc)+E(xc)   XCENC  =      1007.47372333
  PAW double counting   =     43000.83960161   -50544.60784178
  entropy T*S    EENTRO =        -0.00821627
  eigenvalues    EBANDS =     -5522.41743993
  atomic energy  EATOM  =     46750.10682825
  ---------------------------------------------------
  free energy    TOTEN  =      -107.21810089 eV

  energy without entropy =     -107.20988462  energy(sigma->0) =     -107.21399275
  exchange ACFDT corr.  =        -0.00697301  see jH, gK, PRB 81, 115126


--------------------------------------------------------------------------------------------------------




--------------------------------------- Iteration      1(   6)  ---------------------------------------


    POTLOK:  cpu time      0.0518: real time      0.0518
    SETDIJ:  cpu time      0.1129: real time      0.1129
    TRIAL :  cpu time   1405.3568: real time   1405.4073
    CORREC:  cpu time   1411.2966: real time   1411.3479
    CHARGE:  cpu time      0.1149: real time      0.1149
    --------------------------------------------
      LOOP:  cpu time   2816.9334: real time   2817.0352

 eigenvalue-minimisations  :     0
 total energy-change (2. order) :-0.2285807E-04  (-0.9708334E-05)
 number of electron     256.0000056 magnetization 
 augmentation part      152.8183652 magnetization 

 DIPCOR: dipole corrections for dipol
 direction  3 min pos   277,
 dipolmoment           0.000000      0.000000     -0.170454 electrons x Angstroem
 Tr[quadrupol]     -1567.271803

 energy correction for charged system         0.000000 eV
 dipol+quadrupol energy correction           -0.003005 eV
 added-field ion interaction          4.164285 eV  (added to PSCEN)


 Free energy of the ion-electron system (eV)
  ---------------------------------------------------
  alpha Z        PSCENC =       558.16129164
  Ewald energy   TEWEN  =     94864.95685244
  -Hartree energ DENC   =   -130914.29774005
  -exchange      EXHF   =       693.24962047
  -V(xc)+E(xc)   XCENC  =      1007.47596086
  PAW double counting   =     43001.01603173   -50544.85747380
  entropy T*S    EENTRO =        -0.00826035
  eigenvalues    EBANDS =     -5523.02127902
  atomic energy  EATOM  =     46750.10682825
  ---------------------------------------------------
  free energy    TOTEN  =      -107.21812375 eV

  energy without entropy =     -107.20986340  energy(sigma->0) =     -107.21399357
  exchange ACFDT corr.  =        -0.00702727  see jH, gK, PRB 81, 115126


--------------------------------------------------------------------------------------------------------




--------------------------------------- Iteration      1(   7)  ---------------------------------------


    POTLOK:  cpu time      0.0527: real time      0.0527
    SETDIJ:  cpu time      0.1149: real time      0.1149
    TRIAL :  cpu time   1408.6115: real time   1408.6841
    CORREC:  cpu time   1407.6061: real time   1407.6476
    EDDIAG:  cpu time   1405.7949: real time   1405.8540
    CHARGE:  cpu time      0.1183: real time      0.1183
    --------------------------------------------
      LOOP:  cpu time   4222.2988: real time   4222.4720

 eigenvalue-minimisations  :     0
 total energy-change (2. order) :-0.9723394E-05  (-0.4904566E-05)
 number of electron     256.0000056 magnetization 
 augmentation part      152.8181605 magnetization 

 DIPCOR: dipole corrections for dipol
 direction  3 min pos   277,
 dipolmoment           0.000000      0.000000     -0.169793 electrons x Angstroem
 Tr[quadrupol]     -1567.278980

 energy correction for charged system         0.000000 eV
 dipol+quadrupol energy correction           -0.002981 eV
 added-field ion interaction          4.148125 eV  (added to PSCEN)


 Free energy of the ion-electron system (eV)
  ---------------------------------------------------
  alpha Z        PSCENC =       558.11791101
  Ewald energy   TEWEN  =     94864.95685244
  -Hartree energ DENC   =   -130914.48842000
  -exchange      EXHF   =       693.24859628
  -V(xc)+E(xc)   XCENC  =      1007.47557281
  PAW double counting   =     43001.09519094   -50544.92535793
  entropy T*S    EENTRO =        -0.00829378
  eigenvalues    EBANDS =     -5522.79767212
  atomic energy  EATOM  =     46750.10682825
  ---------------------------------------------------
  free energy    TOTEN  =      -107.21813347 eV

  energy without entropy =     -107.20983969  energy(sigma->0) =     -107.21398658
  exchange ACFDT corr.  =        -0.00707123  see jH, gK, PRB 81, 115126


--------------------------------------------------------------------------------------------------------


  average scaling for gradient   0.9688


 average (electrostatic) potential at core
  the test charge radii are     0.9911  0.5201
  (the norm of the test charge is              1.0000)
       1 -72.1626       2 -72.3059       3 -72.1626       4 -72.3059       5 -72.2186
       6 -72.2405       7 -72.0717       8 -72.2186       9 -72.2405      10 -72.0717
      11 -71.7623      12 -72.3263      13 -72.2031      14 -72.2467      15 -72.2031
      16 -72.2467      17 -71.7623      18 -72.3263      19 -33.4274      20 -33.4274
      21 -33.4274      22 -33.4274



 E-fermi :  -0.5290     XC(G=0):  -4.5199     alpha+bet : -4.9614

 Fermi energy:        -0.5290462546

 k-point     1 :       0.0000    0.0000    0.0000
  band No.  band energies     occupation 
      1     -28.3538      2.00000
      2     -28.3495      2.00000
      3     -28.3416      2.00000
      4     -28.3257      2.00000
      5     -28.3169      2.00000
      6     -28.3116      2.00000
      7     -28.3055      2.00000
      8     -28.3005      2.00000
      9     -28.2806      2.00000
     10     -28.2519      2.00000
     11     -28.2377      2.00000
     12     -28.2263      2.00000
     13     -28.2234      2.00000
     14     -28.2173      2.00000
     15     -28.2152      2.00000
     16     -28.2114      2.00000
     17     -28.2053      2.00000
     18     -28.2003      2.00000
     19     -28.1947      2.00000
     20     -28.1781      2.00000
     21     -28.1735      2.00000
     22     -28.1714      2.00000
     23     -28.1711      2.00000
     24     -28.1707      2.00000
     25     -28.1568      2.00000
     26     -28.1490      2.00000
     27     -28.1456      2.00000
     28     -28.1329      2.00000
     29     -28.1311      2.00000
     30     -28.1249      2.00000
     31     -28.1226      2.00000
     32     -28.1220      2.00000
     33     -28.1186      2.00000
     34     -28.1122      2.00000
     35     -28.1117      2.00000
     36     -28.0876      2.00000
     37     -28.0873      2.00000
     38     -28.0840      2.00000
     39     -28.0833      2.00000
     40     -28.0813      2.00000
     41     -28.0794      2.00000
     42     -28.0773      2.00000
     43     -28.0724      2.00000
     44     -28.0700      2.00000
     45     -28.0666      2.00000
     46     -28.0568      2.00000
     47     -28.0447      2.00000
     48     -28.0380      2.00000
     49     -28.0363      2.00000
     50     -28.0335      2.00000
     51     -28.0322      2.00000
     52     -28.0243      2.00000
     53     -28.0177      2.00000
     54     -28.0117      2.00000
     55     -28.0107      2.00000
     56     -28.0011      2.00000
     57     -27.9966      2.00000
     58     -27.9957      2.00000
     59     -27.9806      2.00000
     60     -27.9725      2.00000
     61     -27.9725      2.00000
     62     -27.9717      2.00000
     63     -27.9676      2.00000
     64     -27.9632      2.00000
     65     -27.9601      2.00000
     66     -27.9588      2.00000
     67     -27.9586      2.00000
     68     -27.9479      2.00000
     69     -27.9421      2.00000
     70     -27.9382      2.00000
     71     -27.9352      2.00000
     72     -27.9260      2.00000
     73     -27.9208      2.00000
     74     -27.9176      2.00000
     75     -27.9101      2.00000
     76     -27.9062      2.00000
     77     -27.8952      2.00000
     78     -27.8823      2.00000
     79     -27.8806      2.00000
     80     -27.8716      2.00000
     81     -27.6315      2.00000
     82     -27.6229      2.00000
     83     -27.6212      2.00000
     84     -27.6043      2.00000
     85     -27.6022      2.00000
     86     -27.6002      2.00000
     87     -27.5969      2.00000
     88     -27.5843      2.00000
     89     -27.5741      2.00000
     90     -27.5672      2.00000
     91     -14.1968      2.00000
     92     -13.4852      2.00000
     93     -12.7444      2.00000
     94     -11.6249      2.00000
     95     -10.5238      2.00000
     96     -10.3059      2.00000
     97     -10.0506      2.00000
     98     -10.0485      2.00000
     99      -9.9905      2.00000
    100      -9.8798      2.00000
    101      -9.6615      2.00000
    102      -9.5891      2.00000
    103      -9.3266      2.00000
    104      -8.7042      2.00000
    105      -8.5924      2.00000
    106      -7.3045      2.00000
    107      -6.8794      2.00000
    108      -4.8341      2.00000
    109      -4.3639      2.00000
    110      -4.2933      2.00000
    111      -4.2566      2.00000
    112      -4.2335      2.00000
    113      -3.9458      2.00000
    114      -3.8537      2.00000
    115      -3.7826      2.00000
    116      -3.7396      2.00000
    117      -3.5261      2.00000
    118      -3.3510      2.00000
    119      -3.1119      2.00000
    120      -2.7787      2.00000
    121      -2.5726      2.00000
    122      -2.2722      2.00000
    123      -1.7643      2.00000
    124      -1.5344      2.00000
    125      -1.3652      2.00000
    126      -0.7446      2.00000
    127      -0.7297      2.00000
    128      -0.7175      2.00000
    129      -0.3482      0.00000
    130       1.0811      0.00000
    131       1.1668      0.00000
    132       1.5069      0.00000
    133       1.5145      0.00000
    134       1.5177      0.00000
    135       1.7481      0.00000
    136       1.8181      0.00000
    137       1.9235      0.00000
    138       1.9288      0.00000
    139       2.1861      0.00000
    140       2.5394      0.00000
    141       2.6927      0.00000
    142       2.7827      0.00000
    143       2.8204      0.00000
    144       2.9161      0.00000
    145       3.5595      0.00000
    146       3.5767      0.00000
    147       3.7852      0.00000
    148       3.8676      0.00000
    149       3.9241      0.00000
    150       4.2646      0.00000
    151       4.6622      0.00000
    152       4.6626      0.00000
    153       4.8077      0.00000
    154       5.0077      0.00000
    155       5.0725      0.00000
    156       5.5588      0.00000

 k-point     2 :       0.2500    0.0000    0.0000
  band No.  band energies     occupation 
      1     -28.3567      2.00000
      2     -28.3477      2.00000
      3     -28.3455      2.00000
      4     -28.3348      2.00000
      5     -28.3167      2.00000
      6     -28.3113      2.00000
      7     -28.3079      2.00000
      8     -28.3004      2.00000
      9     -28.2625      2.00000
     10     -28.2494      2.00000
     11     -28.2434      2.00000
     12     -28.2258      2.00000
     13     -28.2250      2.00000
     14     -28.2230      2.00000
     15     -28.2146      2.00000
     16     -28.1990      2.00000
     17     -28.1967      2.00000
     18     -28.1953      2.00000
     19     -28.1875      2.00000
     20     -28.1864      2.00000
     21     -28.1753      2.00000
     22     -28.1732      2.00000
     23     -28.1715      2.00000
     24     -28.1691      2.00000
     25     -28.1645      2.00000
     26     -28.1532      2.00000
     27     -28.1408      2.00000
     28     -28.1346      2.00000
     29     -28.1263      2.00000
     30     -28.1258      2.00000
     31     -28.1251      2.00000
     32     -28.1231      2.00000
     33     -28.1148      2.00000
     34     -28.1123      2.00000
     35     -28.1005      2.00000
     36     -28.0937      2.00000
     37     -28.0928      2.00000
     38     -28.0848      2.00000
     39     -28.0834      2.00000
     40     -28.0814      2.00000
     41     -28.0798      2.00000
     42     -28.0780      2.00000
     43     -28.0757      2.00000
     44     -28.0669      2.00000
     45     -28.0658      2.00000
     46     -28.0563      2.00000
     47     -28.0463      2.00000
     48     -28.0461      2.00000
     49     -28.0433      2.00000
     50     -28.0367      2.00000
     51     -28.0301      2.00000
     52     -28.0220      2.00000
     53     -28.0157      2.00000
     54     -28.0093      2.00000
     55     -28.0004      2.00000
     56     -27.9995      2.00000
     57     -27.9966      2.00000
     58     -27.9962      2.00000
     59     -27.9824      2.00000
     60     -27.9754      2.00000
     61     -27.9748      2.00000
     62     -27.9720      2.00000
     63     -27.9697      2.00000
     64     -27.9673      2.00000
     65     -27.9648      2.00000
     66     -27.9577      2.00000
     67     -27.9537      2.00000
     68     -27.9470      2.00000
     69     -27.9422      2.00000
     70     -27.9374      2.00000
     71     -27.9320      2.00000
     72     -27.9304      2.00000
     73     -27.9215      2.00000
     74     -27.9201      2.00000
     75     -27.9091      2.00000
     76     -27.9064      2.00000
     77     -27.8951      2.00000
     78     -27.8873      2.00000
     79     -27.8741      2.00000
     80     -27.8665      2.00000
     81     -27.6339      2.00000
     82     -27.6318      2.00000
     83     -27.6102      2.00000
     84     -27.6020      2.00000
     85     -27.6016      2.00000
     86     -27.5991      2.00000
     87     -27.5976      2.00000
     88     -27.5903      2.00000
     89     -27.5715      2.00000
     90     -27.5679      2.00000
     91     -13.9181      2.00000
     92     -13.2229      2.00000
     93     -12.5074      2.00000
     94     -11.7771      2.00000
     95     -11.4347      2.00000
     96     -11.2980      2.00000
     97     -10.8592      2.00000
     98     -10.3348      2.00000
     99     -10.1917      2.00000
    100      -9.7954      2.00000
    101      -9.2460      2.00000
    102      -8.7247      2.00000
    103      -8.6617      2.00000
    104      -8.1059      2.00000
    105      -7.5195      2.00000
    106      -7.1410      2.00000
    107      -6.8481      2.00000
    108      -5.5202      2.00000
    109      -4.8493      2.00000
    110      -4.7176      2.00000
    111      -4.4025      2.00000
    112      -4.0992      2.00000
    113      -4.0062      2.00000
    114      -3.8657      2.00000
    115      -3.8563      2.00000
    116      -3.5235      2.00000
    117      -3.4149      2.00000
    118      -3.3730      2.00000
    119      -3.2661      2.00000
    120      -3.1034      2.00000
    121      -3.0687      2.00000
    122      -2.8618      2.00000
    123      -2.3688      2.00000
    124      -2.0422      2.00000
    125      -1.5265      2.00000
    126      -1.3952      2.00000
    127      -1.0496      2.00000
    128      -0.5457      1.36044
    129      -0.4065      0.00045
    130       1.4480      0.00000
    131       1.5625      0.00000
    132       1.9649      0.00000
    133       2.0412      0.00000
    134       2.4472      0.00000
    135       2.4674      0.00000
    136       2.4920      0.00000
    137       2.6384      0.00000
    138       2.6915      0.00000
    139       3.1301      0.00000
    140       3.1390      0.00000
    141       3.1495      0.00000
    142       3.1915      0.00000
    143       3.4380      0.00000
    144       3.5111      0.00000
    145       3.6889      0.00000
    146       3.9339      0.00000
    147       3.9421      0.00000
    148       4.0657      0.00000
    149       4.3338      0.00000
    150       4.4153      0.00000
    151       4.8762      0.00000
    152       4.9262      0.00000
    153       5.0862      0.00000
    154       5.3486      0.00000
    155       5.4924      0.00000
    156       5.5300      0.00000

 k-point     3 :       0.0000    0.2500    0.0000
  band No.  band energies     occupation 
      1     -28.3567      2.00000
      2     -28.3477      2.00000
      3     -28.3455      2.00000
      4     -28.3348      2.00000
      5     -28.3167      2.00000
      6     -28.3113      2.00000
      7     -28.3079      2.00000
      8     -28.3004      2.00000
      9     -28.2625      2.00000
     10     -28.2494      2.00000
     11     -28.2434      2.00000
     12     -28.2258      2.00000
     13     -28.2250      2.00000
     14     -28.2230      2.00000
     15     -28.2146      2.00000
     16     -28.1990      2.00000
     17     -28.1967      2.00000
     18     -28.1953      2.00000
     19     -28.1875      2.00000
     20     -28.1864      2.00000
     21     -28.1753      2.00000
     22     -28.1732      2.00000
     23     -28.1715      2.00000
     24     -28.1691      2.00000
     25     -28.1645      2.00000
     26     -28.1532      2.00000
     27     -28.1408      2.00000
     28     -28.1346      2.00000
     29     -28.1263      2.00000
     30     -28.1258      2.00000
     31     -28.1251      2.00000
     32     -28.1231      2.00000
     33     -28.1148      2.00000
     34     -28.1123      2.00000
     35     -28.1005      2.00000
     36     -28.0937      2.00000
     37     -28.0928      2.00000
     38     -28.0848      2.00000
     39     -28.0834      2.00000
     40     -28.0814      2.00000
     41     -28.0798      2.00000
     42     -28.0780      2.00000
     43     -28.0757      2.00000
     44     -28.0669      2.00000
     45     -28.0658      2.00000
     46     -28.0563      2.00000
     47     -28.0463      2.00000
     48     -28.0461      2.00000
     49     -28.0433      2.00000
     50     -28.0367      2.00000
     51     -28.0301      2.00000
     52     -28.0220      2.00000
     53     -28.0157      2.00000
     54     -28.0093      2.00000
     55     -28.0004      2.00000
     56     -27.9995      2.00000
     57     -27.9966      2.00000
     58     -27.9962      2.00000
     59     -27.9824      2.00000
     60     -27.9754      2.00000
     61     -27.9748      2.00000
     62     -27.9720      2.00000
     63     -27.9697      2.00000
     64     -27.9673      2.00000
     65     -27.9648      2.00000
     66     -27.9577      2.00000
     67     -27.9537      2.00000
     68     -27.9470      2.00000
     69     -27.9422      2.00000
     70     -27.9374      2.00000
     71     -27.9320      2.00000
     72     -27.9304      2.00000
     73     -27.9215      2.00000
     74     -27.9201      2.00000
     75     -27.9091      2.00000
     76     -27.9064      2.00000
     77     -27.8951      2.00000
     78     -27.8873      2.00000
     79     -27.8741      2.00000
     80     -27.8665      2.00000
     81     -27.6339      2.00000
     82     -27.6318      2.00000
     83     -27.6102      2.00000
     84     -27.6020      2.00000
     85     -27.6016      2.00000
     86     -27.5991      2.00000
     87     -27.5976      2.00000
     88     -27.5903      2.00000
     89     -27.5715      2.00000
     90     -27.5679      2.00000
     91     -13.9181      2.00000
     92     -13.2229      2.00000
     93     -12.5074      2.00000
     94     -11.7771      2.00000
     95     -11.4347      2.00000
     96     -11.2980      2.00000
     97     -10.8592      2.00000
     98     -10.3348      2.00000
     99     -10.1917      2.00000
    100      -9.7954      2.00000
    101      -9.2460      2.00000
    102      -8.7247      2.00000
    103      -8.6617      2.00000
    104      -8.1059      2.00000
    105      -7.5195      2.00000
    106      -7.1410      2.00000
    107      -6.8481      2.00000
    108      -5.5202      2.00000
    109      -4.8493      2.00000
    110      -4.7176      2.00000
    111      -4.4025      2.00000
    112      -4.0992      2.00000
    113      -4.0062      2.00000
    114      -3.8657      2.00000
    115      -3.8563      2.00000
    116      -3.5235      2.00000
    117      -3.4149      2.00000
    118      -3.3730      2.00000
    119      -3.2661      2.00000
    120      -3.1034      2.00000
    121      -3.0687      2.00000
    122      -2.8618      2.00000
    123      -2.3688      2.00000
    124      -2.0422      2.00000
    125      -1.5265      2.00000
    126      -1.3952      2.00000
    127      -1.0496      2.00000
    128      -0.5457      1.36043
    129      -0.4065      0.00045
    130       1.4480      0.00000
    131       1.5625      0.00000
    132       1.9649      0.00000
    133       2.0412      0.00000
    134       2.4472      0.00000
    135       2.4674      0.00000
    136       2.4920      0.00000
    137       2.6384      0.00000
    138       2.6915      0.00000
    139       3.1301      0.00000
    140       3.1390      0.00000
    141       3.1495      0.00000
    142       3.1915      0.00000
    143       3.4380      0.00000
    144       3.5111      0.00000
    145       3.6889      0.00000
    146       3.9339      0.00000
    147       3.9421      0.00000
    148       4.0657      0.00000
    149       4.3338      0.00000
    150       4.4153      0.00000
    151       4.8762      0.00000
    152       4.9262      0.00000
    153       5.0862      0.00000
    154       5.3486      0.00000
    155       5.4924      0.00000
    156       5.5296      0.00000

 k-point     4 :       0.5000    0.0000    0.0000
  band No.  band energies     occupation 
      1     -28.3550      2.00000
      2     -28.3550      2.00000
      3     -28.3428      2.00000
      4     -28.3428      2.00000
      5     -28.3141      2.00000
      6     -28.3141      2.00000
      7     -28.3056      2.00000
      8     -28.3056      2.00000
      9     -28.2495      2.00000
     10     -28.2495      2.00000
     11     -28.2287      2.00000
     12     -28.2287      2.00000
     13     -28.2207      2.00000
     14     -28.2207      2.00000
     15     -28.2144      2.00000
     16     -28.2144      2.00000
     17     -28.1984      2.00000
     18     -28.1983      2.00000
     19     -28.1780      2.00000
     20     -28.1779      2.00000
     21     -28.1732      2.00000
     22     -28.1732      2.00000
     23     -28.1723      2.00000
     24     -28.1723      2.00000
     25     -28.1635      2.00000
     26     -28.1635      2.00000
     27     -28.1370      2.00000
     28     -28.1370      2.00000
     29     -28.1244      2.00000
     30     -28.1243      2.00000
     31     -28.1181      2.00000
     32     -28.1180      2.00000
     33     -28.1102      2.00000
     34     -28.1102      2.00000
     35     -28.1056      2.00000
     36     -28.1056      2.00000
     37     -28.0852      2.00000
     38     -28.0852      2.00000
     39     -28.0832      2.00000
     40     -28.0832      2.00000
     41     -28.0808      2.00000
     42     -28.0808      2.00000
     43     -28.0764      2.00000
     44     -28.0763      2.00000
     45     -28.0654      2.00000
     46     -28.0654      2.00000
     47     -28.0488      2.00000
     48     -28.0488      2.00000
     49     -28.0348      2.00000
     50     -28.0348      2.00000
     51     -28.0260      2.00000
     52     -28.0260      2.00000
     53     -28.0055      2.00000
     54     -28.0055      2.00000
     55     -28.0041      2.00000
     56     -28.0041      2.00000
     57     -27.9936      2.00000
     58     -27.9936      2.00000
     59     -27.9838      2.00000
     60     -27.9838      2.00000
     61     -27.9763      2.00000
     62     -27.9763      2.00000
     63     -27.9682      2.00000
     64     -27.9682      2.00000
     65     -27.9616      2.00000
     66     -27.9616      2.00000
     67     -27.9466      2.00000
     68     -27.9466      2.00000
     69     -27.9444      2.00000
     70     -27.9444      2.00000
     71     -27.9311      2.00000
     72     -27.9311      2.00000
     73     -27.9196      2.00000
     74     -27.9196      2.00000
     75     -27.9073      2.00000
     76     -27.9073      2.00000
     77     -27.8932      2.00000
     78     -27.8932      2.00000
     79     -27.8660      2.00000
     80     -27.8660      2.00000
     81     -27.6356      2.00000
     82     -27.6356      2.00000
     83     -27.6014      2.00000
     84     -27.6014      2.00000
     85     -27.6003      2.00000
     86     -27.6003      2.00000
     87     -27.5968      2.00000
     88     -27.5968      2.00000
     89     -27.5694      2.00000
     90     -27.5694      2.00000
     91     -13.0947      2.00000
     92     -13.0947      2.00000
     93     -12.4595      2.00000
     94     -12.4595      2.00000
     95     -11.8339      2.00000
     96     -11.8339      2.00000
     97     -10.9323      2.00000
     98     -10.9323      2.00000
     99      -9.9517      2.00000
    100      -9.9517      2.00000
    101      -8.8919      2.00000
    102      -8.8919      2.00000
    103      -7.8254      2.00000
    104      -7.8254      2.00000
    105      -6.7338      2.00000
    106      -6.7338      2.00000
    107      -5.7852      2.00000
    108      -5.7851      2.00000
    109      -5.3660      2.00000
    110      -5.3660      2.00000
    111      -4.6830      2.00000
    112      -4.6830      2.00000
    113      -4.5294      2.00000
    114      -4.5294      2.00000
    115      -3.8586      2.00000
    116      -3.8586      2.00000
    117      -3.6814      2.00000
    118      -3.6814      2.00000
    119      -3.0276      2.00000
    120      -3.0276      2.00000
    121      -2.7972      2.00000
    122      -2.7972      2.00000
    123      -2.2270      2.00000
    124      -2.2270      2.00000
    125      -2.0901      2.00000
    126      -2.0901      2.00000
    127      -0.9994      2.00000
    128      -0.9993      2.00000
    129       0.4208      0.00000
    130       0.4210      0.00000
    131       2.0729      0.00000
    132       2.0730      0.00000
    133       2.7953      0.00000
    134       2.7953      0.00000
    135       2.8963      0.00000
    136       2.8963      0.00000
    137       3.5474      0.00000
    138       3.5474      0.00000
    139       3.6681      0.00000
    140       3.6681      0.00000
    141       3.8680      0.00000
    142       3.8680      0.00000
    143       4.3549      0.00000
    144       4.3550      0.00000
    145       5.0141      0.00000
    146       5.0142      0.00000
    147       5.1220      0.00000
    148       5.1229      0.00000
    149       5.3211      0.00000
    150       5.3211      0.00000
    151       5.3544      0.00000
    152       5.3547      0.00000
    153       5.6215      0.00000
    154       5.6217      0.00000
    155       5.8582      0.00000
    156       5.8746      0.00000

 k-point     5 :       0.0000    0.5000    0.0000
  band No.  band energies     occupation 
      1     -28.3550      2.00000
      2     -28.3550      2.00000
      3     -28.3428      2.00000
      4     -28.3428      2.00000
      5     -28.3141      2.00000
      6     -28.3141      2.00000
      7     -28.3056      2.00000
      8     -28.3056      2.00000
      9     -28.2495      2.00000
     10     -28.2495      2.00000
     11     -28.2287      2.00000
     12     -28.2287      2.00000
     13     -28.2207      2.00000
     14     -28.2207      2.00000
     15     -28.2144      2.00000
     16     -28.2144      2.00000
     17     -28.1984      2.00000
     18     -28.1983      2.00000
     19     -28.1780      2.00000
     20     -28.1779      2.00000
     21     -28.1732      2.00000
     22     -28.1732      2.00000
     23     -28.1723      2.00000
     24     -28.1723      2.00000
     25     -28.1635      2.00000
     26     -28.1635      2.00000
     27     -28.1370      2.00000
     28     -28.1370      2.00000
     29     -28.1244      2.00000
     30     -28.1243      2.00000
     31     -28.1181      2.00000
     32     -28.1180      2.00000
     33     -28.1102      2.00000
     34     -28.1102      2.00000
     35     -28.1056      2.00000
     36     -28.1056      2.00000
     37     -28.0852      2.00000
     38     -28.0852      2.00000
     39     -28.0832      2.00000
     40     -28.0832      2.00000
     41     -28.0808      2.00000
     42     -28.0808      2.00000
     43     -28.0764      2.00000
     44     -28.0763      2.00000
     45     -28.0654      2.00000
     46     -28.0654      2.00000
     47     -28.0488      2.00000
     48     -28.0488      2.00000
     49     -28.0348      2.00000
     50     -28.0348      2.00000
     51     -28.0260      2.00000
     52     -28.0260      2.00000
     53     -28.0055      2.00000
     54     -28.0055      2.00000
     55     -28.0041      2.00000
     56     -28.0041      2.00000
     57     -27.9936      2.00000
     58     -27.9936      2.00000
     59     -27.9838      2.00000
     60     -27.9838      2.00000
     61     -27.9763      2.00000
     62     -27.9763      2.00000
     63     -27.9682      2.00000
     64     -27.9682      2.00000
     65     -27.9616      2.00000
     66     -27.9616      2.00000
     67     -27.9466      2.00000
     68     -27.9466      2.00000
     69     -27.9444      2.00000
     70     -27.9444      2.00000
     71     -27.9311      2.00000
     72     -27.9311      2.00000
     73     -27.9196      2.00000
     74     -27.9196      2.00000
     75     -27.9073      2.00000
     76     -27.9073      2.00000
     77     -27.8932      2.00000
     78     -27.8932      2.00000
     79     -27.8660      2.00000
     80     -27.8660      2.00000
     81     -27.6356      2.00000
     82     -27.6356      2.00000
     83     -27.6014      2.00000
     84     -27.6014      2.00000
     85     -27.6003      2.00000
     86     -27.6003      2.00000
     87     -27.5968      2.00000
     88     -27.5968      2.00000
     89     -27.5694      2.00000
     90     -27.5694      2.00000
     91     -13.0947      2.00000
     92     -13.0947      2.00000
     93     -12.4595      2.00000
     94     -12.4595      2.00000
     95     -11.8339      2.00000
     96     -11.8339      2.00000
     97     -10.9323      2.00000
     98     -10.9323      2.00000
     99      -9.9517      2.00000
    100      -9.9517      2.00000
    101      -8.8919      2.00000
    102      -8.8919      2.00000
    103      -7.8254      2.00000
    104      -7.8254      2.00000
    105      -6.7338      2.00000
    106      -6.7338      2.00000
    107      -5.7852      2.00000
    108      -5.7851      2.00000
    109      -5.3660      2.00000
    110      -5.3660      2.00000
    111      -4.6830      2.00000
    112      -4.6830      2.00000
    113      -4.5294      2.00000
    114      -4.5294      2.00000
    115      -3.8586      2.00000
    116      -3.8586      2.00000
    117      -3.6814      2.00000
    118      -3.6814      2.00000
    119      -3.0276      2.00000
    120      -3.0276      2.00000
    121      -2.7972      2.00000
    122      -2.7972      2.00000
    123      -2.2270      2.00000
    124      -2.2270      2.00000
    125      -2.0901      2.00000
    126      -2.0901      2.00000
    127      -0.9994      2.00000
    128      -0.9993      2.00000
    129       0.4208      0.00000
    130       0.4210      0.00000
    131       2.0729      0.00000
    132       2.0730      0.00000
    133       2.7953      0.00000
    134       2.7953      0.00000
    135       2.8963      0.00000
    136       2.8963      0.00000
    137       3.5474      0.00000
    138       3.5474      0.00000
    139       3.6681      0.00000
    140       3.6681      0.00000
    141       3.8679      0.00000
    142       3.8680      0.00000
    143       4.3549      0.00000
    144       4.3550      0.00000
    145       5.0141      0.00000
    146       5.0142      0.00000
    147       5.1219      0.00000
    148       5.1224      0.00000
    149       5.3211      0.00000
    150       5.3211      0.00000
    151       5.3544      0.00000
    152       5.3545      0.00000
    153       5.6215      0.00000
    154       5.6216      0.00000
    155       5.8565      0.00000
    156       5.8659      0.00000

 k-point     6 :       0.2500    0.2500    0.0000
  band No.  band energies     occupation 
      1     -28.3495      2.00000
      2     -28.3449      2.00000
      3     -28.3445      2.00000
      4     -28.3429      2.00000
      5     -28.3220      2.00000
      6     -28.3173      2.00000
      7     -28.3043      2.00000
      8     -28.2970      2.00000
      9     -28.2630      2.00000
     10     -28.2606      2.00000
     11     -28.2306      2.00000
     12     -28.2270      2.00000
     13     -28.2200      2.00000
     14     -28.2110      2.00000
     15     -28.2066      2.00000
     16     -28.2030      2.00000
     17     -28.2003      2.00000
     18     -28.1958      2.00000
     19     -28.1922      2.00000
     20     -28.1891      2.00000
     21     -28.1757      2.00000
     22     -28.1745      2.00000
     23     -28.1702      2.00000
     24     -28.1686      2.00000
     25     -28.1598      2.00000
     26     -28.1581      2.00000
     27     -28.1556      2.00000
     28     -28.1434      2.00000
     29     -28.1249      2.00000
     30     -28.1246      2.00000
     31     -28.1222      2.00000
     32     -28.1220      2.00000
     33     -28.1179      2.00000
     34     -28.1022      2.00000
     35     -28.0974      2.00000
     36     -28.0937      2.00000
     37     -28.0849      2.00000
     38     -28.0843      2.00000
     39     -28.0838      2.00000
     40     -28.0835      2.00000
     41     -28.0765      2.00000
     42     -28.0754      2.00000
     43     -28.0747      2.00000
     44     -28.0705      2.00000
     45     -28.0629      2.00000
     46     -28.0609      2.00000
     47     -28.0602      2.00000
     48     -28.0421      2.00000
     49     -28.0404      2.00000
     50     -28.0401      2.00000
     51     -28.0372      2.00000
     52     -28.0216      2.00000
     53     -28.0173      2.00000
     54     -28.0021      2.00000
     55     -27.9967      2.00000
     56     -27.9948      2.00000
     57     -27.9937      2.00000
     58     -27.9910      2.00000
     59     -27.9877      2.00000
     60     -27.9845      2.00000
     61     -27.9793      2.00000
     62     -27.9747      2.00000
     63     -27.9675      2.00000
     64     -27.9636      2.00000
     65     -27.9632      2.00000
     66     -27.9563      2.00000
     67     -27.9483      2.00000
     68     -27.9454      2.00000
     69     -27.9444      2.00000
     70     -27.9439      2.00000
     71     -27.9301      2.00000
     72     -27.9227      2.00000
     73     -27.9199      2.00000
     74     -27.9186      2.00000
     75     -27.9085      2.00000
     76     -27.9066      2.00000
     77     -27.8987      2.00000
     78     -27.8864      2.00000
     79     -27.8786      2.00000
     80     -27.8705      2.00000
     81     -27.6291      2.00000
     82     -27.6232      2.00000
[...]
    133       2.2250      0.00000
    134       2.2263      0.00000
    135       2.8369      0.00000
    136       2.8455      0.00000
    137       3.0571      0.00000
    138       3.2220      0.00000
    139       3.4076      0.00000
    140       3.6661      0.00000
    141       3.8809      0.00000
    142       3.9200      0.00000
    143       4.0243      0.00000
    144       4.2013      0.00000
    145       4.3452      0.00000
    146       4.4101      0.00000
    147       4.5513      0.00000
    148       4.5665      0.00000
    149       4.7114      0.00000
    150       4.7190      0.00000
    151       5.1228      0.00000
    152       5.1717      0.00000
    153       5.3180      0.00000
    154       5.3808      0.00000
    155       5.5418      0.00000
    156       5.5557      0.00000

 k-point    10 :       0.5000    0.5000    0.0000
  band No.  band energies     occupation 
      1     -28.3481      2.00000
      2     -28.3393      2.00000
      3     -28.3357      2.00000
      4     -28.3331      2.00000
      5     -28.3282      2.00000
      6     -28.3203      2.00000
      7     -28.3118      2.00000
      8     -28.2834      2.00000
      9     -28.2661      2.00000
     10     -28.2573      2.00000
     11     -28.2342      2.00000
     12     -28.2308      2.00000
     13     -28.2254      2.00000
     14     -28.2177      2.00000
     15     -28.2175      2.00000
     16     -28.2097      2.00000
     17     -28.2043      2.00000
     18     -28.1969      2.00000
     19     -28.1891      2.00000
     20     -28.1885      2.00000
     21     -28.1871      2.00000
     22     -28.1869      2.00000
     23     -28.1759      2.00000
     24     -28.1712      2.00000
     25     -28.1692      2.00000
     26     -28.1565      2.00000
     27     -28.1491      2.00000
     28     -28.1340      2.00000
     29     -28.1286      2.00000
     30     -28.1271      2.00000
     31     -28.1236      2.00000
     32     -28.1216      2.00000
     33     -28.1083      2.00000
     34     -28.1010      2.00000
     35     -28.0971      2.00000
     36     -28.0966      2.00000
     37     -28.0838      2.00000
     38     -28.0836      2.00000
     39     -28.0790      2.00000
     40     -28.0766      2.00000
     41     -28.0707      2.00000
     42     -28.0651      2.00000
     43     -28.0643      2.00000
     44     -28.0610      2.00000
     45     -28.0564      2.00000
     46     -28.0553      2.00000
     47     -28.0539      2.00000
     48     -28.0450      2.00000
     49     -28.0450      2.00000
     50     -28.0337      2.00000
     51     -28.0249      2.00000
     52     -28.0226      2.00000
     53     -28.0165      2.00000
     54     -28.0085      2.00000
     55     -28.0083      2.00000
     56     -27.9977      2.00000
     57     -27.9948      2.00000
     58     -27.9944      2.00000
     59     -27.9915      2.00000
     60     -27.9838      2.00000
     61     -27.9744      2.00000
     62     -27.9739      2.00000
     63     -27.9643      2.00000
     64     -27.9606      2.00000
     65     -27.9592      2.00000
     66     -27.9516      2.00000
     67     -27.9516      2.00000
     68     -27.9513      2.00000
     69     -27.9508      2.00000
     70     -27.9443      2.00000
     71     -27.9403      2.00000
     72     -27.9245      2.00000
     73     -27.9202      2.00000
     74     -27.9200      2.00000
     75     -27.9072      2.00000
     76     -27.9068      2.00000
     77     -27.9021      2.00000
     78     -27.8914      2.00000
     79     -27.8762      2.00000
     80     -27.8695      2.00000
     81     -27.6272      2.00000
     82     -27.6252      2.00000
     83     -27.6166      2.00000
     84     -27.6046      2.00000
     85     -27.6021      2.00000
     86     -27.5999      2.00000
     87     -27.5985      2.00000
     88     -27.5843      2.00000
     89     -27.5763      2.00000
     90     -27.5706      2.00000
     91     -12.3856      2.00000
     92     -12.2739      2.00000
     93     -12.2454      2.00000
     94     -12.2162      2.00000
     95     -11.9417      2.00000
     96     -11.7828      2.00000
     97     -11.6707      2.00000
     98     -11.6636      2.00000
     99     -11.2533      2.00000
    100      -9.2029      2.00000
    101      -8.5496      2.00000
    102      -8.3914      2.00000
    103      -8.2878      2.00000
    104      -8.0915      2.00000
    105      -7.7760      2.00000
    106      -7.6532      2.00000
    107      -7.5917      2.00000
    108      -7.2123      2.00000
    109      -6.7573      2.00000
    110      -5.4019      2.00000
    111      -4.0667      2.00000
    112      -4.0538      2.00000
    113      -3.7601      2.00000
    114      -3.3504      2.00000
    115      -3.1785      2.00000
    116      -2.8893      2.00000
    117      -2.8217      2.00000
    118      -2.5030      2.00000
    119      -1.9253      2.00000
    120      -1.8940      2.00000
    121      -1.8613      2.00000
    122      -1.7574      2.00000
    123      -1.5351      2.00000
    124      -1.5112      2.00000
    125      -1.3282      2.00000
    126      -1.3127      2.00000
    127      -1.1018      2.00000
    128      -0.8512      2.00000
    129      -0.8508      2.00000
    130       1.0025      0.00000
    131       1.3285      0.00000
    132       1.4360      0.00000
    133       1.5194      0.00000
    134       2.1252      0.00000
    135       2.4235      0.00000
    136       2.4288      0.00000
    137       2.6899      0.00000
    138       2.7752      0.00000
    139       3.3602      0.00000
    140       3.6618      0.00000
    141       3.7919      0.00000
    142       4.0790      0.00000
    143       4.0833      0.00000
    144       4.4923      0.00000
    145       4.5243      0.00000
    146       4.5745      0.00000
    147       4.5925      0.00000
    148       4.6053      0.00000
    149       4.6799      0.00000
    150       4.7454      0.00000
    151       4.8188      0.00000
    152       5.1104      0.00000
    153       5.2376      0.00000
    154       5.2695      0.00000
    155       5.4453      0.00000
    156       5.5600      0.00000


--------------------------------------------------------------------------------------------------------


 soft charge-density along one line, spin component           1
         0         1         2         3         4         5         6         7         8         9
 total charge-density along one line

 pseudopotential strength for first ion, spin component:           1
-24.009  -0.000   0.016  -0.000  -0.000   5.056   0.000  -0.007
 -0.000 -24.016  -0.000  -0.013   0.000   0.000   5.059   0.000
  0.016  -0.000 -24.018  -0.000  -0.000  -0.007   0.000   5.059
 -0.000  -0.013  -0.000 -24.016  -0.000   0.000   0.006   0.000
 -0.000   0.000  -0.000  -0.000 -24.008  -0.000  -0.000   0.000
  5.056   0.000  -0.007   0.000  -0.000   1.664  -0.000   0.002
  0.000   5.059   0.000   0.006  -0.000  -0.000   1.664  -0.000
 -0.007   0.000   5.059   0.000   0.000   0.002  -0.000   1.663
  0.000   0.006   0.000   5.059   0.000  -0.000  -0.002  -0.000
 -0.000  -0.000   0.000   0.000   5.055   0.000   0.000  -0.000
 -0.001   0.000  -0.000   0.000   0.000   0.003   0.000   0.001
 -0.001   0.000  -0.000   0.000   0.000   0.004   0.000   0.002
  0.000   0.000  -0.000   0.003  -0.000  -0.000   0.000   0.000
  0.003  -0.000   0.001  -0.000   0.000  -0.002   0.000  -0.000
  0.000   0.003  -0.000   0.000   0.000  -0.000  -0.002   0.000
  0.000   0.001  -0.000   0.006  -0.000  -0.000   0.000   0.000
  0.006  -0.000   0.001  -0.000   0.000  -0.004   0.000  -0.000
  0.000   0.006  -0.000   0.001   0.000  -0.000  -0.004   0.000
 total augmentation occupancy for first ion, spin component:           1
  1.992  -0.000   0.000  -0.000  -0.000  -0.006  -0.000   0.000  -0.000  -0.000  -0.012   0.009   0.000   0.062   0.000  -0.000
 -0.000   1.993   0.000  -0.000  -0.000  -0.000  -0.004  -0.000  -0.000  -0.000   0.000  -0.000  -0.003  -0.000   0.065   0.001
  0.000   0.000   1.990  -0.000   0.000   0.000  -0.000  -0.013  -0.000   0.000   0.004  -0.002  -0.000   0.001  -0.000   0.000
 -0.000  -0.000  -0.000   1.993   0.000  -0.000  -0.000  -0.000  -0.004   0.000   0.000  -0.000   0.065  -0.000  -0.003  -0.022
 -0.000  -0.000   0.000   0.000   1.990  -0.000  -0.000   0.000   0.000  -0.014   0.000  -0.000   0.000   0.000  -0.000  -0.000
 -0.006  -0.000   0.000  -0.000  -0.000   0.038  -0.000   0.002  -0.000  -0.000  -0.005  -0.003   0.000   0.216   0.000  -0.000
 -0.000  -0.004  -0.000  -0.000  -0.000  -0.000   0.044  -0.000   0.001  -0.000   0.000   0.000  -0.005  -0.000   0.229   0.001
  0.000  -0.000  -0.013  -0.000   0.000   0.002  -0.000   0.012  -0.000  -0.000   0.017  -0.008  -0.000   0.008  -0.000   0.000
 -0.000  -0.000  -0.000  -0.004   0.000  -0.000   0.001  -0.000   0.044   0.000   0.000   0.000   0.229  -0.000  -0.005  -0.044
 -0.000  -0.000   0.000   0.000  -0.014  -0.000  -0.000  -0.000   0.000   0.013  -0.000   0.000   0.000   0.000  -0.000  -0.000
 -0.012   0.000   0.004   0.000   0.000  -0.005   0.000   0.017   0.000  -0.000   4.847  -1.764  -0.000   0.006  -0.000   0.000
  0.009  -0.000  -0.002  -0.000  -0.000  -0.003   0.000  -0.008   0.000   0.000  -1.764   0.747   0.000  -0.011   0.000  -0.000
  0.000  -0.003  -0.000   0.065   0.000   0.000  -0.005  -0.000   0.229   0.000  -0.000   0.000   2.173   0.000  -0.092  -0.408
  0.062  -0.000   0.001  -0.000   0.000   0.216  -0.000   0.008  -0.000   0.000   0.006  -0.011   0.000   2.170  -0.000  -0.000
  0.000   0.065  -0.000  -0.003  -0.000   0.000   0.229  -0.000  -0.005  -0.000  -0.000   0.000  -0.092  -0.000   2.173   0.011
 -0.000   0.001   0.000  -0.022  -0.000  -0.000   0.001   0.000  -0.044  -0.000   0.000  -0.000  -0.408  -0.000   0.011   0.082
 -0.022   0.000  -0.000   0.000  -0.000  -0.043   0.000  -0.001   0.000  -0.000   0.001  -0.001  -0.000  -0.423  -0.000   0.000
  0.000  -0.022   0.000   0.001   0.000  -0.000  -0.044   0.000   0.001   0.000   0.000  -0.000   0.011  -0.000  -0.408  -0.002


------------------------ aborting loop because EDIFF is reached ----------------------------------------





 total charge

# of ion       s       p       d       tot
------------------------------------------
    1        1.129   1.222  10.024  12.375
    2        1.112   1.311  10.031  12.454
    3        1.129   1.222  10.024  12.375
    4        1.112   1.311  10.031  12.454
    5        1.274   0.902   9.990  12.165
    6        1.119   1.281  10.026  12.426
    7        1.099   1.469  10.068  12.636
    8        1.274   0.902   9.990  12.165
    9        1.119   1.281  10.026  12.426
   10        1.099   1.469  10.068  12.636
   11        1.131   1.259  10.016  12.406
   12        1.116   1.303  10.031  12.450
   13        1.129   1.232  10.021  12.382
   14        1.106   1.328  10.027  12.461
   15        1.129   1.232  10.021  12.382
   16        1.106   1.328  10.027  12.461
   17        1.131   1.259  10.016  12.406
   18        1.116   1.303  10.031  12.450
   19        0.563   0.018   0.000   0.581
   20        0.563   0.018   0.000   0.581
   21        0.563   0.018   0.000   0.581
   22        0.563   0.018   0.000   0.581
--------------------------------------------------
tot         22.679  22.684 180.467 225.830

    FORLOC:  cpu time      0.0024: real time      0.0024
    FORHF :  cpu time   1207.9937: real time   1208.0396
    FORNL :  cpu time      0.6842: real time      0.6842
    FORCOR:  cpu time      0.1635: real time      0.1635
    OFIELD:  cpu time      0.0002: real time      0.0002

 VOLUME and BASIS-vectors are now :
 -----------------------------------------------------------------------------
  energy-cutoff  :      450.00
  volume of cell :      874.87
      direct lattice vectors                 reciprocal lattice vectors
     5.624500000  0.000000000  0.000000000     0.177793582  0.000000000  0.000000000
     0.000000000  5.624500000  0.000000000     0.000000000  0.177793582  0.000000000
     0.000000000  0.000000000 27.655225140     0.000000000  0.000000000  0.036159532

  length of vectors
     5.624500000  5.624500000 27.655225140     0.177793582  0.177793582  0.036159532


 FORCES acting on ions:
    Electron-Ion                     Ewald-Force                    Non-Local-Force
 -----------------------------------------------------------------------------------------------
   -.601E-02 -.536E-02 0.244E+04   0.594E-02 0.527E-02 -.244E+04   -.102E-04 0.177E-04 0.629E+00
   -.139E-04 -.793E-05 -.225E+04   0.114E-05 0.220E-05 0.225E+04   0.314E-05 -.549E-05 0.500E+00
   0.181E-02 0.183E-02 0.244E+04   -.181E-02 -.185E-02 -.244E+04   0.420E-04 0.666E-04 0.629E+00
   0.181E-04 0.161E-04 -.225E+04   -.162E-04 -.165E-04 0.225E+04   -.125E-05 0.339E-05 0.500E+00
   -.656E-02 0.506E-02 0.452E+04   0.545E-02 -.402E-02 -.454E+04   0.871E-03 -.773E-03 0.175E+02
   -.581E-03 0.422E-04 0.122E+03   0.471E-03 0.519E-04 -.124E+03   0.806E-04 -.688E-04 0.128E+01
   0.560E-05 0.583E-06 -.446E+04   0.454E-06 -.328E-06 0.447E+04   0.296E-05 0.128E-04 -.225E+01
   0.470E-02 -.609E-02 0.452E+04   -.353E-02 0.489E-02 -.454E+04   -.895E-03 0.960E-03 0.175E+02
   0.101E-04 -.569E-03 0.122E+03   0.690E-04 0.482E-03 -.124E+03   -.572E-04 0.613E-04 0.128E+01
   -.172E-05 -.280E-05 -.446E+04   -.295E-06 0.480E-06 0.447E+04   0.955E-05 0.114E-04 -.225E+01
   0.294E-02 0.184E-02 0.353E+04   -.305E-02 -.190E-02 -.353E+04   -.951E-05 -.467E-04 0.437E+01
   0.119E-03 0.398E-04 -.105E+04   -.104E-03 -.141E-04 0.105E+04   -.195E-04 -.239E-04 0.348E+00
   0.312E-03 -.686E-04 0.129E+04   -.269E-03 0.110E-03 -.129E+04   -.423E-04 -.419E-04 0.136E+01
   0.115E-05 0.720E-05 -.341E+04   -.211E-05 -.890E-06 0.342E+04   0.298E-05 -.419E-05 -.127E-01
   0.123E-02 0.972E-03 0.129E+04   -.121E-02 -.956E-03 -.129E+04   -.184E-04 -.238E-04 0.136E+01
   0.656E-05 0.598E-05 -.341E+04   0.359E-05 0.243E-05 0.342E+04   -.507E-05 -.550E-05 -.127E-01
   0.190E-02 0.187E-02 0.353E+04   -.196E-02 -.197E-02 -.353E+04   -.325E-04 -.208E-04 0.437E+01
   0.545E-05 0.873E-04 -.105E+04   0.165E-04 -.826E-04 0.105E+04   -.199E-04 -.981E-05 0.348E+00
   0.357E+02 0.357E+02 -.369E+03   -.374E+02 -.374E+02 0.371E+03   0.157E+01 0.157E+01 -.162E+01
   -.357E+02 -.357E+02 -.369E+03   0.374E+02 0.374E+02 0.371E+03   -.157E+01 -.157E+01 -.162E+01
   0.357E+02 0.357E+02 -.369E+03   -.374E+02 -.374E+02 0.371E+03   0.157E+01 0.157E+01 -.162E+01
   -.357E+02 -.357E+02 -.369E+03   0.374E+02 0.374E+02 0.371E+03   -.157E+01 -.157E+01 -.162E+01
 -----------------------------------------------------------------------------------------------
   -.976E-04 -.334E-03 -.445E+02   0.199E-12 0.355E-13 0.171E-12   -.976E-04 0.109E-03 0.410E+02


 POSITION                                       TOTAL-FORCE (eV/Angst)
 -----------------------------------------------------------------------------------
      5.62450      2.81225     10.14466        -0.000070     -0.000061      0.127017
      0.00000      2.81225     15.93675        -0.000009     -0.000012      0.000516
      2.81225      5.62450     10.14465         0.000046      0.000048      0.127039
      2.81225      0.00000     15.93675         0.000000      0.000002      0.000516
      5.62445      0.00002      7.13732        -0.000147      0.000187     -0.023627
      0.00000      0.00000     13.12450        -0.000022      0.000016     -0.642258
      0.00000      0.00000     18.74900         0.000009      0.000011     -0.619907
      2.81228      2.81220      7.13733         0.000191     -0.000147     -0.023634
      2.81225      2.81225     13.12450         0.000015     -0.000022     -0.642254
      2.81225      2.81225     18.74900         0.000010      0.000008     -0.619905
      1.40611      1.40611      8.68989        -0.000005     -0.000010      0.246060
      1.40613      1.40613     14.53062        -0.000004      0.000002      0.064030
      1.40612      4.21837     11.64925        -0.000002     -0.000004      0.014785
      1.40613      4.21837     17.34287         0.000001      0.000001      0.184514
      4.21837      1.40612     11.64925         0.000001     -0.000005      0.014843
      4.21837      1.40613     17.34287         0.000003      0.000002      0.184517
      4.21837      4.21836      8.68990        -0.000019     -0.000008      0.246054
      4.21837      4.21837     14.53062         0.000003     -0.000005      0.064031
      4.75847      4.75847     19.61503        -0.031456     -0.031461      0.324414
      0.86603      0.86603     19.61503         0.031456      0.031459      0.324417
      1.94622      1.94622     19.61503        -0.031456     -0.031460      0.324415
      3.67828      3.67828     19.61503         0.031456      0.031458      0.324416
 -----------------------------------------------------------------------------------
    total drift:                                0.000019      0.000041     -0.016460


--------------------------------------------------------------------------------------------------------



  FREE ENERGIE OF THE ION-ELECTRON SYSTEM (eV)
  ---------------------------------------------------
  free  energy   TOTEN  =      -107.21813347 eV

  energy  without entropy=     -107.20983969  energy(sigma->0) =     -107.21398658



--------------------------------------------------------------------------------------------------------


    POTLOK:  cpu time      0.1617: real time      0.1617


--------------------------------------------------------------------------------------------------------


 writing wavefunctions
     LOOP+:  cpu time  22373.9178: real time  22374.7837
    4ORBIT:  cpu time      0.0000: real time      0.0000



 total charge

# of ion       s       p       d       tot
------------------------------------------
    1        1.129   1.222  10.024  12.375
    2        1.112   1.311  10.031  12.454
    3        1.129   1.222  10.024  12.375
    4        1.112   1.311  10.031  12.454
    5        1.274   0.902   9.990  12.165
    6        1.119   1.281  10.026  12.426
    7        1.099   1.469  10.068  12.636
    8        1.274   0.902   9.990  12.165
    9        1.119   1.281  10.026  12.426
   10        1.099   1.469  10.068  12.636
   11        1.131   1.259  10.016  12.406
   12        1.116   1.303  10.031  12.450
   13        1.129   1.232  10.021  12.382
   14        1.106   1.328  10.027  12.461
   15        1.129   1.232  10.021  12.382
   16        1.106   1.328  10.027  12.461
   17        1.131   1.259  10.016  12.406
   18        1.116   1.303  10.031  12.450
   19        0.563   0.018   0.000   0.581
   20        0.563   0.018   0.000   0.581
   21        0.563   0.018   0.000   0.581
   22        0.563   0.018   0.000   0.581
--------------------------------------------------
tot         22.679  22.684 180.467 225.830


 total amount of memory used by VASP MPI-rank0   129485. kBytes
=======================================================================

   base      :      30000. kBytes
   nonlr-proj:       3810. kBytes
   fftplans  :       6033. kBytes
   grid      :       2638. kBytes
   one-center:         46. kBytes
   HF        :         64. kBytes
   wavefun   :      46425. kBytes
   fock_wrk  :      40469. kBytes

  
  
 General timing and accounting informations for this job:
 ========================================================
  
                  Total CPU time used (sec):    22382.412
                            User time (sec):    20123.090
                          System time (sec):     2259.322
                         Elapsed time (sec):    22383.532
  
                   Maximum memory used (kb):      339832.
                   Average memory used (kb):          N/A
  
                          Minor page faults:      9744777
                          Major page faults:            6
                 Voluntary context switches:         1573
