PROCAR lm decomposed
# of k-points:   10         # of bands:  156         # of ions:   22

 k-point     1 :    0.00000000 0.00000000 0.00000000     weight = 0.06250000

band     1 # energy  -28.35375696 # occ.  2.00000000

ion      s     py     pz     px    dxy    dyz    dz2    dxz  x2-y2    tot
    1  0.000  0.000  0.000  0.000  0.000  0.000  0.000  0.000  0.000  0.000
    2  0.000  0.000  0.000  0.000  0.000  0.075  0.000  0.075  0.000  0.151
    3  0.000  0.000  0.000  0.000  0.000  0.000  0.000  0.000  0.000  0.000
    4  0.000  0.000  0.000  0.000  0.000  0.075  0.000  0.075  0.000  0.151
    5  0.000  0.000  0.000  0.000  0.000  0.000  0.000  0.000  0.000  0.000
    6  0.000  0.000  0.000  0.000  0.000  0.036  0.000  0.036  0.000  0.072
    7  0.000  0.000  0.000  0.000  0.000  0.000  0.000  0.000  0.000  0.000
    8  0.000  0.000  0.000  0.000  0.000  0.000  0.000  0.000  0.000  0.000
    9  0.000  0.000  0.000  0.000  0.000  0.036  0.000  0.036  0.000  0.072
   10  0.000  0.000  0.000  0.000  0.000  0.000  0.000  0.000  0.000  0.000
   11  0.000  0.000  0.000  0.000  0.000  0.000  0.000  0.000  0.000  0.000
   12  0.000  0.000  0.000  0.000  0.266  0.000  0.000  0.000  0.000  0.266
   13  0.000  0.000  0.000  0.000  0.000  0.000  0.000  0.000  0.002  0.002
   14  0.000  0.000  0.000  0.000  0.000  0.000  0.000  0.000  0.006  0.006
   15  0.000  0.000  0.000  0.000  0.000  0.000  0.000  0.000  0.002  0.002
   16  0.000  0.000  0.000  0.000  0.000  0.000  0.000  0.000  0.006  0.006
   17  0.000  0.000  0.000  0.000  0.000  0.000  0.000  0.000  0.000  0.000
   18  0.000  0.000  0.000  0.000  0.266  0.000  0.000  0.000  0.000  0.266
   19  0.000  0.000  0.000  0.000  0.000  0.000  0.000  0.000  0.000  0.000
   20  0.000  0.000  0.000  0.000  0.000  0.000  0.000  0.000  0.000  0.000
   21  0.000  0.000  0.000  0.000  0.000  0.000  0.000  0.000  0.000  0.000
   22  0.000  0.000  0.000  0.000  0.000  0.000  0.000  0.000  0.000  0.000
tot    0.000  0.000  0.000  0.000  0.532  0.222  0.000  0.222  0.016  0.994

band     2 # energy  -28.34945530 # occ.  2.00000000

ion      s     py     pz     px    dxy    dyz    dz2    dxz  x2-y2    tot
    1  0.000  0.000  0.000  0.000  0.000  0.000  0.000  0.000  0.000  0.000
    2  0.000  0.000  0.000  0.000  0.238  0.000  0.000  0.000  0.000  0.239
    3  0.000  0.000  0.000  0.000  0.000  0.000  0.000  0.000  0.000  0.000
    4  0.000  0.000  0.000  0.000  0.238  0.000  0.000  0.000  0.000  0.239
    5  0.000  0.000  0.000  0.000  0.000  0.000  0.000  0.000  0.000  0.000
    6  0.000  0.000  0.000  0.000  0.000  0.000  0.000  0.000  0.007  0.007
    7  0.000  0.000  0.000  0.000  0.000  0.000  0.000  0.000  0.001  0.001
    8  0.000  0.000  0.000  0.000  0.000  0.000  0.000  0.000  0.000  0.000
    9  0.000  0.000  0.000  0.000  0.000  0.000  0.000  0.000  0.007  0.007
   10  0.000  0.000  0.000  0.000  0.000  0.000  0.000  0.000  0.001  0.001
   11  0.000  0.000  0.000  0.000  0.000  0.000  0.000  0.000  0.000  0.000
   12  0.000  0.000  0.000  0.000  0.000  0.089  0.000  0.089  0.000  0.179
   13  0.000  0.000  0.000  0.000  0.000  0.000  0.000  0.000  0.000  0.000
   14  0.000  0.000  0.000  0.000  0.000  0.035  0.000  0.035  0.000  0.071
   15  0.000  0.000  0.000  0.000  0.000  0.000  0.000  0.000  0.000  0.000
   16  0.000  0.000  0.000  0.000  0.000  0.035  0.000  0.035  0.000  0.071
   17  0.000  0.000  0.000  0.000  0.000  0.000  0.000  0.000  0.000  0.000
   18  0.000  0.000  0.000  0.000  0.000  0.089  0.000  0.089  0.000  0.179
   19  0.000  0.000  0.000  0.000  0.000  0.000  0.000  0.000  0.000  0.000
   20  0.000  0.000  0.000  0.000  0.000  0.000  0.000  0.000  0.000  0.000
   21  0.000  0.000  0.000  0.000  0.000  0.000  0.000  0.000  0.000  0.000
   22  0.000  0.000  0.000  0.000  0.000  0.000  0.000  0.000  0.000  0.000
tot    0.000  0.000  0.000  0.000  0.477  0.250  0.001  0.250  0.016  0.993

band     3 # energy  -28.34160652 # occ.  2.00000000

ion      s     py     pz     px    dxy    dyz    dz2    dxz  x2-y2    tot
    1  0.000  0.000  0.000  0.000  0.000  0.000  0.000  0.000  0.000  0.000
    2  0.000  0.000  0.000  0.000  0.000  0.116  0.000  0.116  0.000  0.231
    3  0.000  0.000  0.000  0.000  0.000  0.000  0.000  0.000  0.000  0.000
    4  0.000  0.000  0.000  0.000  0.000  0.116  0.000  0.116  0.000  0.231
    5  0.000  0.000  0.000  0.000  0.000  0.000  0.000  0.000  0.000  0.000
    6  0.000  0.000  0.000  0.000  0.000  0.002  0.000  0.002  0.000  0.004
    7  0.000  0.000  0.000  0.000  0.000  0.000  0.000  0.000  0.000  0.000
    8  0.000  0.000  0.000  0.000  0.000  0.000  0.000  0.000  0.000  0.000
    9  0.000  0.000  0.000  0.000  0.000  0.002  0.000  0.002  0.000  0.004
   10  0.000  0.000  0.000  0.000  0.000  0.000  0.000  0.000  0.000  0.000
   11  0.000  0.000  0.000  0.000  0.000  0.000  0.000  0.000  0.000  0.000
   12  0.000  0.000  0.000  0.000  0.000  0.129  0.000  0.129  0.000  0.257
   13  0.000  0.000  0.000  0.000  0.000  0.000  0.000  0.000  0.000  0.001
   14  0.000  0.000  0.000  0.000  0.000  0.002  0.000  0.002  0.000  0.003
   15  0.000  0.000  0.000  0.000  0.000  0.000  0.000  0.000  0.000  0.001
   16  0.000  0.000  0.000  0.000  0.000  0.002  0.000  0.002  0.000  0.003
   17  0.000  0.000  0.000  0.000  0.000  0.000  0.000  0.000  0.000  0.000
   18  0.000  0.000  0.000  0.000  0.000  0.129  0.000  0.129  0.000  0.257
   19  0.000  0.000  0.000  0.000  0.000  0.000  0.000  0.000  0.000  0.000
   20  0.000  0.000  0.000  0.000  0.000  0.000  0.000  0.000  0.000  0.000
   21  0.000  0.000  0.000  0.000  0.000  0.000  0.000  0.000  0.000  0.000
   22  0.000  0.000  0.000  0.000  0.000  0.000  0.000  0.000  0.000  0.000
tot    0.000  0.000  0.000  0.000  0.000  0.497  0.000  0.497  0.000  0.994

band     4 # energy  -28.32568956 # occ.  2.00000000

ion      s     py     pz     px    dxy    dyz    dz2    dxz  x2-y2    tot
    1  0.000  0.000  0.000  0.000  0.000  0.000  0.000  0.000  0.000  0.000
    2  0.000  0.000  0.000  0.000  0.000  0.050  0.000  0.050  0.000  0.100
    3  0.000  0.000  0.000  0.000  0.000  0.000  0.000  0.000  0.000  0.000
    4  0.000  0.000  0.000  0.000  0.000  0.050  0.000  0.050  0.000  0.100
    5  0.000  0.000  0.000  0.000  0.000  0.000  0.000  0.000  0.000  0.000
    6  0.000  0.000  0.000  0.000  0.000  0.058  0.000  0.058  0.000  0.117
    7  0.000  0.000  0.000  0.000  0.000  0.000  0.000  0.000  0.000  0.000
    8  0.000  0.000  0.000  0.000  0.000  0.000  0.000  0.000  0.000  0.000
    9  0.000  0.000  0.000  0.000  0.000  0.058  0.000  0.058  0.000  0.117
   10  0.000  0.000  0.000  0.000  0.000  0.000  0.000  0.000  0.000  0.000
   11  0.000  0.000  0.000  0.000  0.000  0.000  0.000  0.000  0.000  0.000
   12  0.000  0.000  0.000  0.000  0.000  0.112  0.000  0.112  0.000  0.224
   13  0.000  0.000  0.000  0.000  0.000  0.001  0.000  0.001  0.000  0.001
   14  0.000  0.000  0.000  0.000  0.000  0.028  0.000  0.028  0.000  0.055
   15  0.000  0.000  0.000  0.000  0.000  0.001  0.000  0.001  0.000  0.001
   16  0.000  0.000  0.000  0.000  0.000  0.028  0.000  0.028  0.000  0.055
   17  0.000  0.000  0.000  0.000  0.000  0.000  0.000  0.000  0.000  0.000
   18  0.000  0.000  0.000  0.000  0.000  0.112  0.000  0.112  0.000  0.224
   19  0.000  0.000  0.000  0.000  0.000  0.000  0.000  0.000  0.000  0.000
   20  0.000  0.000  0.000  0.000  0.000  0.000  0.000  0.000  0.000  0.000
   21  0.000  0.000  0.000  0.000  0.000  0.000  0.000  0.000  0.000  0.000
   22  0.000  0.000  0.000  0.000  0.000  0.000  0.000  0.000  0.000  0.000
tot    0.000  0.000  0.000  0.000  0.000  0.497  0.000  0.497  0.000  0.994

band     5 # energy  -28.31694548 # occ.  2.00000000

ion      s     py     pz     px    dxy    dyz    dz2    dxz  x2-y2    tot
    1  0.000  0.000  0.000  0.000  0.000  0.000  0.000  0.000  0.000  0.000
    2  0.000  0.000  0.000  0.000  0.000  0.000  0.000  0.000  0.036  0.036
    3  0.000  0.000  0.000  0.000  0.000  0.000  0.000  0.000  0.000  0.000
    4  0.000  0.000  0.000  0.000  0.000  0.000  0.000  0.000  0.036  0.036
    5  0.000  0.000  0.000  0.000  0.000  0.000  0.000  0.000  0.000  0.000
    6  0.000  0.000  0.000  0.000  0.151  0.000  0.004  0.000  0.000  0.155
    7  0.000  0.000  0.000  0.000  0.001  0.000  0.000  0.000  0.000  0.001
    8  0.000  0.000  0.000  0.000  0.000  0.000  0.000  0.000  0.000  0.000
    9  0.000  0.000  0.000  0.000  0.151  0.000  0.004  0.000  0.000  0.155
   10  0.000  0.000  0.000  0.000  0.001  0.000  0.000  0.000  0.000  0.001
   11  0.000  0.000  0.000  0.000  0.000  0.000  0.000  0.000  0.000  0.000
   12  0.000  0.000  0.000  0.000  0.000  0.139  0.000  0.139  0.000  0.278
   13  0.000  0.000  0.000  0.000  0.000  0.011  0.000  0.011  0.000  0.022
   14  0.000  0.000  0.000  0.000  0.000  0.003  0.000  0.003  0.000  0.005
   15  0.000  0.000  0.000  0.000  0.000  0.011  0.000  0.011  0.000  0.022
   16  0.000  0.000  0.000  0.000  0.000  0.003  0.000  0.003  0.000  0.005
   17  0.000  0.000  0.000  0.000  0.000  0.000  0.000  0.000  0.000  0.000
   18  0.000  0.000  0.000  0.000  0.000  0.139  0.000  0.139  0.000  0.278
   19  0.000  0.000  0.000  0.000  0.000  0.000  0.000  0.000  0.000  0.000
   20  0.000  0.000  0.000  0.000  0.000  0.000  0.000  0.000  0.000  0.000
   21  0.000  0.000  0.000  0.000  0.000  0.000  0.000  0.000  0.000  0.000
   22  0.000  0.000  0.000  0.000  0.000  0.000  0.000  0.000  0.000  0.000
tot    0.000  0.000  0.000  0.000  0.303  0.305  0.008  0.305  0.072  0.993

band     6 # energy  -28.31158602 # occ.  2.00000000

ion      s     py     pz     px    dxy    dyz    dz2    dxz  x2-y2    tot
    1  0.000  0.000  0.000  0.000  0.000  0.000  0.000  0.000  0.000  0.000
    2  0.000  0.000  0.000  0.000  0.000  0.123  0.000  0.123  0.000  0.247
    3  0.000  0.000  0.000  0.000  0.000  0.000  0.000  0.000  0.000  0.000
    4  0.000  0.000  0.000  0.000  0.000  0.123  0.000  0.123  0.000  0.247
    5  0.000  0.000  0.000  0.000  0.000  0.000  0.000  0.000  0.000  0.000
    6  0.000  0.000  0.000  0.000  0.000  0.003  0.000  0.003  0.000  0.007
    7  0.000  0.000  0.000  0.000  0.000  0.009  0.000  0.009  0.000  0.018
    8  0.000  0.000  0.000  0.000  0.000  0.000  0.000  0.000  0.000  0.000
    9  0.000  0.000  0.000  0.000  0.000  0.003  0.000  0.003  0.000  0.007
   10  0.000  0.000  0.000  0.000  0.000  0.009  0.000  0.009  0.000  0.018
   11  0.000  0.000  0.000  0.000  0.000  0.000  0.000  0.000  0.000  0.000
   12  0.000  0.000  0.000  0.000  0.000  0.000  0.000  0.000  0.048  0.048
   13  0.000  0.000  0.000  0.000  0.002  0.000  0.000  0.000  0.000  0.002
   14  0.000  0.000  0.000  0.000  0.172  0.000  0.004  0.000  0.000  0.175
   15  0.000  0.000  0.000  0.000  0.002  0.000  0.000  0.000  0.000  0.002
   16  0.000  0.000  0.000  0.000  0.172  0.000  0.004  0.000  0.000  0.175
   17  0.000  0.000  0.000  0.000  0.000  0.000  0.000  0.000  0.000  0.000
   18  0.000  0.000  0.000  0.000  0.000  0.000  0.000  0.000  0.048  0.048
   19  0.000  0.000  0.000  0.000  0.000  0.000  0.000  0.000  0.000  0.000
   20  0.000  0.000  0.000  0.000  0.000  0.000  0.000  0.000  0.000  0.000
   21  0.000  0.000  0.000  0.000  0.000  0.000  0.000  0.000  0.000  0.000
   22  0.000  0.000  0.000  0.000  0.000  0.000  0.000  0.000  0.000  0.000
tot    0.000  0.000  0.000  0.000  0.346  0.272  0.007  0.272  0.096  0.993

band     7 # energy  -28.30546915 # occ.  2.00000000

ion      s     py     pz     px    dxy    dyz    dz2    dxz  x2-y2    tot
    1  0.000  0.000  0.000  0.000  0.000  0.000  0.000  0.000  0.000  0.000
    2  0.000  0.000  0.000  0.000  0.171  0.000  0.010  0.000  0.000  0.181
    3  0.000  0.000  0.000  0.000  0.000  0.000  0.000  0.000  0.000  0.000
    4  0.000  0.000  0.000  0.000  0.171  0.000  0.010  0.000  0.000  0.181
    5  0.000  0.000  0.000  0.000  0.000  0.000  0.000  0.000  0.000  0.000
    6  0.000  0.000  0.000  0.000  0.023  0.000  0.016  0.000  0.000  0.039
    7  0.000  0.000  0.000  0.000  0.000  0.000  0.001  0.000  0.000  0.001
    8  0.000  0.000  0.000  0.000  0.000  0.000  0.000  0.000  0.000  0.000
    9  0.000  0.000  0.000  0.000  0.023  0.000  0.016  0.000  0.000  0.039
   10  0.000  0.000  0.000  0.000  0.000  0.000  0.001  0.000  0.000  0.001
   11  0.000  0.000  0.000  0.000  0.000  0.000  0.000  0.000  0.000  0.000
   12  0.000  0.000  0.000  0.000  0.230  0.000  0.012  0.000  0.000  0.242
   13  0.000  0.000  0.000  0.000  0.000  0.000  0.003  0.000  0.000  0.003
   14  0.000  0.000  0.000  0.000  0.018  0.000  0.013  0.000  0.000  0.031
   15  0.000  0.000  0.000  0.000  0.000  0.000  0.003  0.000  0.000  0.003
   16  0.000  0.000  0.000  0.000  0.018  0.000  0.013  0.000  0.000  0.031
   17  0.000  0.000  0.000  0.000  0.000  0.000  0.000  0.000  0.000  0.000
   18  0.000  0.000  0.000  0.000  0.230  0.000  0.012  0.000  0.000  0.242
   19  0.000  0.000  0.000  0.000  0.000  0.000  0.000  0.000  0.000  0.000
   20  0.000  0.000  0.000  0.000  0.000  0.000  0.000  0.000  0.000  0.000
   21  0.000  0.000  0.000  0.000  0.000  0.000  0.000  0.000  0.000  0.000
   22  0.000  0.000  0.000  0.000  0.000  0.000  0.000  0.000  0.000  0.000
tot    0.000  0.000  0.001  0.000  0.883  0.000  0.109  0.000  0.000  0.993

band     8 # energy  -28.30050376 # occ.  2.00000000

ion      s     py     pz     px    dxy    dyz    dz2    dxz  x2-y2    tot
    1  0.000  0.000  0.000  0.000  0.000  0.000  0.000  0.000  0.000  0.000
    2  0.000  0.000  0.000  0.000  0.000  0.095  0.000  0.095  0.000  0.191
    3  0.000  0.000  0.000  0.000  0.000  0.000  0.000  0.000  0.000  0.000
    4  0.000  0.000  0.000  0.000  0.000  0.095  0.000  0.095  0.000  0.191
    5  0.000  0.000  0.000  0.000  0.000  0.000  0.000  0.000  0.000  0.000
    6  0.000  0.000  0.000  0.000  0.000  0.032  0.000  0.032  0.000  0.065
    7  0.000  0.000  0.000  0.000  0.000  0.000  0.000  0.000  0.000  0.001
    8  0.000  0.000  0.000  0.000  0.000  0.000  0.000  0.000  0.000  0.000
    9  0.000  0.000  0.000  0.000  0.000  0.032  0.000  0.032  0.000  0.065
   10  0.000  0.000  0.000  0.000  0.000  0.000  0.000  0.000  0.000  0.001
   11  0.000  0.000  0.000  0.000  0.000  0.000  0.000  0.000  0.000  0.000
   12  0.000  0.000  0.000  0.000  0.000  0.045  0.000  0.045  0.000  0.089
   13  0.000  0.000  0.000  0.000  0.000  0.000  0.000  0.000  0.000  0.001
   14  0.000  0.000  0.000  0.000  0.000  0.075  0.000  0.075  0.000  0.150
   15  0.000  0.000  0.000  0.000  0.000  0.000  0.000  0.000  0.000  0.001
   16  0.000  0.000  0.000  0.000  0.000  0.075  0.000  0.075  0.000  0.150
   17  0.000  0.000  0.000  0.000  0.000  0.000  0.000  0.000  0.000  0.000
   18  0.000  0.000  0.000  0.000  0.000  0.045  0.000  0.045  0.000  0.089
   19  0.000  0.000  0.000  0.000  0.000  0.000  0.000  0.000  0.000  0.000
   20  0.000  0.000  0.000  0.000  0.000  0.000  0.000  0.000  0.000  0.000
   21  0.000  0.000  0.000  0.000  0.000  0.000  0.000  0.000  0.000  0.000
   22  0.000  0.000  0.000  0.000  0.000  0.000  0.000  0.000  0.000  0.000
tot    0.000  0.000  0.000  0.000  0.000  0.497  0.000  0.497  0.000  0.994

band     9 # energy  -28.28056417 # occ.  2.00000000

ion      s     py     pz     px    dxy    dyz    dz2    dxz  x2-y2    tot
    1  0.000  0.000  0.000  0.000  0.000  0.000  0.000  0.000  0.000  0.000
    2  0.000  0.000  0.000  0.000  0.031  0.000  0.142  0.000  0.000  0.172
    3  0.000  0.000  0.000  0.000  0.000  0.000  0.000  0.000  0.000  0.000
    4  0.000  0.000  0.000  0.000  0.031  0.000  0.142  0.000  0.000  0.172
    5  0.000  0.000  0.000  0.000  0.000  0.000  0.000  0.000  0.000  0.000
    6  0.000  0.000  0.000  0.000  0.043  0.000  0.012  0.000  0.000  0.055
    7  0.000  0.000  0.000  0.000  0.003  0.000  0.000  0.000  0.000  0.003
    8  0.000  0.000  0.000  0.000  0.000  0.000  0.000  0.000  0.000  0.000
    9  0.000  0.000  0.000  0.000  0.043  0.000  0.012  0.000  0.000  0.055
   10  0.000  0.000  0.000  0.000  0.003  0.000  0.000  0.000  0.000  0.003
   11  0.000  0.000  0.000  0.000  0.000  0.000  0.000  0.000  0.000  0.000
   12  0.000  0.000  0.000  0.000  0.028  0.000  0.175  0.000  0.000  0.203
   13  0.000  0.000  0.000  0.000  0.006  0.000  0.000  0.000  0.000  0.007
   14  0.000  0.000  0.000  0.000  0.046  0.000  0.010  0.000  0.000  0.056
   15  0.000  0.000  0.000  0.000  0.006  0.000  0.000  0.000  0.000  0.007
   16  0.000  0.000  0.000  0.000  0.046  0.000  0.010  0.000  0.000  0.056
   17  0.000  0.000  0.000  0.000  0.000  0.000  0.000  0.000  0.000  0.000
   18  0.000  0.000  0.000  0.000  0.028  0.000  0.175  0.000  0.000  0.203
   19  0.000  0.000  0.000  0.000  0.000  0.000  0.000  0.000  0.000  0.000
   20  0.000  0.000  0.000  0.000  0.000  0.000  0.000  0.000  0.000  0.000
   21  0.000  0.000  0.000  0.000  0.000  0.000  0.000  0.000  0.000  0.000
   22  0.000  0.000  0.000  0.000  0.000  0.000  0.000  0.000  0.000  0.000
tot    0.000  0.000  0.000  0.000  0.315  0.000  0.677  0.000  0.000  0.992

band    10 # energy  -28.25187609 # occ.  2.00000000

ion      s     py     pz     px    dxy    dyz    dz2    dxz  x2-y2    tot
    1  0.000  0.000  0.000  0.000  0.000  0.000  0.000  0.000  0.000  0.000
    2  0.000  0.000  0.000  0.000  0.000  0.000  0.000  0.000  0.176  0.176
    3  0.000  0.000  0.000  0.000  0.000  0.000  0.000  0.000  0.000  0.000
    4  0.000  0.000  0.000  0.000  0.000  0.000  0.000  0.000  0.176  0.176
    5  0.000  0.000  0.000  0.000  0.000  0.000  0.000  0.000  0.000  0.000
    6  0.000  0.000  0.000  0.000  0.000  0.000  0.000  0.000  0.040  0.040
    7  0.000  0.000  0.000  0.000  0.000  0.000  0.000  0.000  0.001  0.001
    8  0.000  0.000  0.000  0.000  0.000  0.000  0.000  0.000  0.000  0.000
    9  0.000  0.000  0.000  0.000  0.000  0.000  0.000  0.000  0.040  0.040
   10  0.000  0.000  0.000  0.000  0.000  0.000  0.000  0.000  0.001  0.001
   11  0.000  0.000  0.000  0.000  0.000  0.000  0.000  0.000  0.000  0.000
   12  0.000  0.000  0.000  0.000  0.000  0.000  0.000  0.000  0.244  0.244
   13  0.000  0.000  0.000  0.000  0.000  0.000  0.000  0.000  0.003  0.003
   14  0.000  0.000  0.000  0.000  0.000  0.000  0.000  0.000  0.033  0.033
   15  0.000  0.000  0.000  0.000  0.000  0.000  0.000  0.000  0.003  0.003
   16  0.000  0.000  0.000  0.000  0.000  0.000  0.000  0.000  0.033  0.033
   17  0.000  0.000  0.000  0.000  0.000  0.000  0.000  0.000  0.000  0.000
   18  0.000  0.000  0.000  0.000  0.000  0.000  0.000  0.000  0.244  0.244
   19  0.000  0.000  0.000  0.000  0.000  0.000  0.000  0.000  0.000  0.000
   20  0.000  0.000  0.000  0.000  0.000  0.000  0.000  0.000  0.000  0.000
   21  0.000  0.000  0.000  0.000  0.000  0.000  0.000  0.000  0.000  0.000
   22  0.000  0.000  0.000  0.000  0.000  0.000  0.000  0.000  0.000  0.000
tot    0.000  0.000  0.000  0.000  0.000  0.000  0.000  0.000  0.993  0.993

band    11 # energy  -28.23771237 # occ.  2.00000000

ion      s     py     pz     px    dxy    dyz    dz2    dxz  x2-y2    tot
    1  0.000  0.000  0.000  0.000  0.000  0.018  0.000  0.018  0.000  0.036
    2  0.000  0.000  0.000  0.000  0.000  0.003  0.000  0.003  0.000  0.006
    3  0.000  0.000  0.000  0.000  0.000  0.018  0.000  0.018  0.000  0.036
    4  0.000  0.000  0.000  0.000  0.000  0.003  0.000  0.003  0.000  0.006
    5  0.000  0.000  0.000  0.000  0.000  0.000  0.000  0.000  0.000  0.000
    6  0.000  0.000  0.000  0.000  0.000  0.091  0.000  0.091  0.000  0.183
    7  0.000  0.000  0.000  0.000  0.000  0.003  0.000  0.003  0.000  0.006
    8  0.000  0.000  0.000  0.000  0.000  0.000  0.000  0.000  0.000  0.000
    9  0.000  0.000  0.000  0.000  0.000  0.091  0.000  0.091  0.000  0.183
   10  0.000  0.000  0.000  0.000  0.000  0.003  0.000  0.003  0.000  0.006
   11  0.000  0.000  0.000  0.000  0.000  0.000  0.000  0.000  0.000  0.000
   12  0.000  0.000  0.000  0.000  0.000  0.000  0.000  0.000  0.094  0.094
   13  0.000  0.000  0.000  0.000  0.143  0.000  0.000  0.000  0.000  0.144
   14  0.000  0.000  0.000  0.000  0.028  0.000  0.000  0.000  0.000  0.028
   15  0.000  0.000  0.000  0.000  0.143  0.000  0.000  0.000  0.000  0.143
   16  0.000  0.000  0.000  0.000  0.028  0.000  0.000  0.000  0.000  0.028
   17  0.000  0.000  0.000  0.000  0.000  0.000  0.000  0.000  0.000  0.000
   18  0.000  0.000  0.000  0.000  0.000  0.000  0.000  0.000  0.094  0.094
   19  0.000  0.000  0.000  0.000  0.000  0.000  0.000  0.000  0.000  0.000
   20  0.000  0.000  0.000  0.000  0.000  0.000  0.000  0.000  0.000  0.000
   21  0.000  0.000  0.000  0.000  0.000  0.000  0.000  0.000  0.000  0.000
   22  0.000  0.000  0.000  0.000  0.000  0.000  0.000  0.000  0.000  0.000
tot    0.000  0.000  0.000  0.000  0.343  0.230  0.000  0.230  0.189  0.993

band    12 # energy  -28.22630082 # occ.  2.00000000

ion      s     py     pz     px    dxy    dyz    dz2    dxz  x2-y2    tot
    1  0.000  0.000  0.000  0.000  0.000  0.001  0.000  0.001  0.000  0.002
    2  0.000  0.000  0.000  0.000  0.000  0.003  0.000  0.003  0.000  0.006
    3  0.000  0.000  0.000  0.000  0.000  0.001  0.000  0.001  0.000  0.002
    4  0.000  0.000  0.000  0.000  0.000  0.003  0.000  0.003  0.000  0.006
    5  0.000  0.000  0.000  0.000  0.000  0.000  0.000  0.000  0.000  0.000
    6  0.000  0.000  0.000  0.000  0.000  0.139  0.000  0.139  0.000  0.278
    7  0.000  0.000  0.000  0.000  0.000  0.001  0.000  0.001  0.000  0.002
    8  0.000  0.000  0.000  0.000  0.000  0.000  0.000  0.000  0.000  0.000
    9  0.000  0.000  0.000  0.000  0.000  0.139  0.000  0.139  0.000  0.278
   10  0.000  0.000  0.000  0.000  0.000  0.001  0.000  0.001  0.000  0.002
   11  0.000  0.000  0.000  0.000  0.000  0.000  0.000  0.000  0.000  0.000
   12  0.000  0.000  0.000  0.000  0.000  0.000  0.000  0.000  0.000  0.000
   13  0.000  0.000  0.000  0.000  0.000  0.101  0.000  0.101  0.000  0.202
   14  0.000  0.000  0.000  0.000  0.000  0.003  0.000  0.003  0.000  0.006
   15  0.000  0.000  0.000  0.000  0.000  0.101  0.000  0.101  0.000  0.202
   16  0.000  0.000  0.000  0.000  0.000  0.003  0.000  0.003  0.000  0.006
   17  0.000  0.000  0.000  0.000  0.000  0.000  0.000  0.000  0.000  0.000
   18  0.000  0.000  0.000  0.000  0.000  0.000  0.000  0.000  0.000  0.000
   19  0.000  0.000  0.000  0.000  0.000  0.000  0.000  0.000  0.000  0.000
   20  0.000  0.000  0.000  0.000  0.000  0.000  0.000  0.000  0.000  0.000
   21  0.000  0.000  0.000  0.000  0.000  0.000  0.000  0.000  0.000  0.000
   22  0.000  0.000  0.000  0.000  0.000  0.000  0.000  0.000  0.000  0.000
tot    0.000  0.000  0.000  0.000  0.000  0.497  0.000  0.497  0.000  0.994

band    13 # energy  -28.22335633 # occ.  2.00000000

ion      s     py     pz     px    dxy    dyz    dz2    dxz  x2-y2    tot
    1  0.000  0.000  0.000  0.000  0.000  0.000  0.000  0.000  0.000  0.000
    2  0.000  0.000  0.000  0.000  0.000  0.000  0.000  0.000  0.126  0.126
    3  0.000  0.000  0.000  0.000  0.000  0.000  0.000  0.000  0.000  0.000
    4  0.000  0.000  0.000  0.000  0.000  0.000  0.000  0.000  0.126  0.126
    5  0.000  0.000  0.000  0.000  0.000  0.000  0.000  0.000  0.000  0.000
    6  0.000  0.000  0.000  0.000  0.027  0.000  0.000  0.000  0.000  0.027
    7  0.000  0.000  0.000  0.000  0.068  0.000  0.005  0.000  0.000  0.073
    8  0.000  0.000  0.000  0.000  0.000  0.000  0.000  0.000  0.000  0.000
    9  0.000  0.000  0.000  0.000  0.027  0.000  0.000  0.000  0.000  0.027
   10  0.000  0.000  0.000  0.000  0.068  0.000  0.005  0.000  0.000  0.073
   11  0.000  0.000  0.000  0.000  0.000  0.000  0.000  0.000  0.000  0.000
   12  0.000  0.000  0.000  0.000  0.000  0.002  0.000  0.002  0.000  0.003
   13  0.000  0.000  0.000  0.000  0.000  0.006  0.000  0.006  0.000  0.013
   14  0.000  0.000  0.000  0.000  0.000  0.127  0.000  0.127  0.000  0.254
   15  0.000  0.000  0.000  0.000  0.000  0.006  0.000  0.006  0.000  0.013
   16  0.000  0.000  0.000  0.000  0.000  0.127  0.000  0.127  0.000  0.254
   17  0.000  0.000  0.000  0.000  0.000  0.000  0.000  0.000  0.000  0.000
   18  0.000  0.000  0.000  0.000  0.000  0.002  0.000  0.002  0.000  0.003
   19  0.000  0.000  0.000  0.000  0.000  0.000  0.000  0.000  0.000  0.000
   20  0.000  0.000  0.000  0.000  0.000  0.000  0.000  0.000  0.000  0.000
   21  0.000  0.000  0.000  0.000  0.000  0.000  0.000  0.000  0.000  0.000
   22  0.000  0.000  0.000  0.000  0.000  0.000  0.000  0.000  0.000  0.000
tot    0.000  0.000  0.000  0.000  0.190  0.270  0.011  0.270  0.252  0.994

band    14 # energy  -28.21728934 # occ.  2.00000000

ion      s     py     pz     px    dxy    dyz    dz2    dxz  x2-y2    tot
    1  0.000  0.000  0.000  0.000  0.000  0.000  0.000  0.000  0.000  0.001
    2  0.000  0.000  0.000  0.000  0.000  0.056  0.000  0.056  0.000  0.113
    3  0.000  0.000  0.000  0.000  0.000  0.000  0.000  0.000  0.000  0.001
    4  0.000  0.000  0.000  0.000  0.000  0.056  0.000  0.056  0.000  0.113
    5  0.000  0.000  0.000  0.000  0.000  0.000  0.000  0.000  0.000  0.000
    6  0.000  0.000  0.000  0.000  0.000  0.057  0.000  0.057  0.000  0.114
    7  0.000  0.000  0.000  0.000  0.000  0.001  0.000  0.001  0.000  0.002
    8  0.000  0.000  0.000  0.000  0.000  0.000  0.000  0.000  0.000  0.000
    9  0.000  0.000  0.000  0.000  0.000  0.057  0.000  0.057  0.000  0.114
   10  0.000  0.000  0.000  0.000  0.000  0.001  0.000  0.001  0.000  0.002
   11  0.000  0.000  0.000  0.000  0.000  0.000  0.000  0.000  0.000  0.000
   12  0.000  0.000  0.000  0.000  0.011  0.000  0.214  0.000  0.000  0.225
   13  0.000  0.000  0.000  0.000  0.000  0.000  0.000  0.000  0.011  0.011
   14  0.000  0.000  0.000  0.000  0.000  0.000  0.000  0.000  0.031  0.031
   15  0.000  0.000  0.000  0.000  0.000  0.000  0.000  0.000  0.011  0.011
   16  0.000  0.000  0.000  0.000  0.000  0.000  0.000  0.000  0.031  0.031
   17  0.000  0.000  0.000  0.000  0.000  0.000  0.000  0.000  0.000  0.000
   18  0.000  0.000  0.000  0.000  0.011  0.000  0.214  0.000  0.000  0.225
   19  0.000  0.000  0.000  0.000  0.000  0.000  0.000  0.000  0.000  0.000
   20  0.000  0.000  0.000  0.000  0.000  0.000  0.000  0.000  0.000  0.000
   21  0.000  0.000  0.000  0.000  0.000  0.000  0.000  0.000  0.000  0.000
   22  0.000  0.000  0.000  0.000  0.000  0.000  0.000  0.000  0.000  0.000
tot    0.001  0.000  0.000  0.000  0.022  0.230  0.427  0.230  0.084  0.994

band    15 # energy  -28.21521313 # occ.  2.00000000

ion      s     py     pz     px    dxy    dyz    dz2    dxz  x2-y2    tot
    1  0.000  0.000  0.000  0.000  0.004  0.000  0.000  0.000  0.000  0.004
    2  0.000  0.000  0.000  0.000  0.020  0.000  0.138  0.000  0.000  0.158
    3  0.000  0.000  0.000  0.000  0.004  0.000  0.000  0.000  0.000  0.004
    4  0.000  0.000  0.000  0.000  0.020  0.000  0.138  0.000  0.000  0.158
    5  0.000  0.000  0.000  0.000  0.000  0.000  0.000  0.000  0.000  0.000
    6  0.000  0.000  0.000  0.000  0.000  0.000  0.000  0.000  0.036  0.036
    7  0.000  0.000  0.000  0.000  0.000  0.000  0.000  0.000  0.005  0.005
    8  0.000  0.000  0.000  0.000  0.000  0.000  0.000  0.000  0.000  0.000
    9  0.000  0.000  0.000  0.000  0.000  0.000  0.000  0.000  0.036  0.036
   10  0.000  0.000  0.000  0.000  0.000  0.000  0.000  0.000  0.005  0.005
   11  0.000  0.000  0.000  0.000  0.000  0.000  0.000  0.000  0.000  0.000
   12  0.000  0.000  0.000  0.000  0.000  0.063  0.000  0.063  0.000  0.125
   13  0.000  0.000  0.000  0.000  0.000  0.006  0.000  0.006  0.000  0.012
   14  0.000  0.000  0.000  0.000  0.000  0.078  0.000  0.078  0.000  0.157
   15  0.000  0.000  0.000  0.000  0.000  0.006  0.000  0.006  0.000  0.012
   16  0.000  0.000  0.000  0.000  0.000  0.078  0.000  0.078  0.000  0.157
   17  0.000  0.000  0.000  0.000  0.000  0.000  0.000  0.000  0.000  0.000
   18  0.000  0.000  0.000  0.000  0.000  0.063  0.000  0.063  0.000  0.125
   19  0.000  0.000  0.000  0.000  0.000  0.000  0.000  0.000  0.000  0.000
   20  0.000  0.000  0.000  0.000  0.000  0.000  0.000  0.000  0.000  0.000
   21  0.000  0.000  0.000  0.000  0.000  0.000  0.000  0.000  0.000  0.000
   22  0.000  0.000  0.000  0.000  0.000  0.000  0.000  0.000  0.000  0.000
tot    0.001  0.000  0.000  0.000  0.047  0.294  0.275  0.294  0.082  0.993

band    16 # energy  -28.21136516 # occ.  2.00000000

ion      s     py     pz     px    dxy    dyz    dz2    dxz  x2-y2    tot
    1  0.000  0.000  0.000  0.000  0.000  0.000  0.000  0.000  0.000  0.000
    2  0.000  0.000  0.000  0.000  0.000  0.000  0.000  0.000  0.000  0.000
    3  0.000  0.000  0.000  0.000  0.000  0.000  0.000  0.000  0.000  0.000
    4  0.000  0.000  0.000  0.000  0.000  0.000  0.000  0.000  0.000  0.000
    5  0.000  0.000  0.000  0.000  0.000  0.000  0.000  0.000  0.000  0.000
    6  0.000  0.000  0.000  0.000  0.000  0.002  0.000  0.002  0.000  0.004
    7  0.000  0.000  0.000  0.000  0.000  0.067  0.000  0.067  0.000  0.134
    8  0.000  0.000  0.000  0.000  0.000  0.000  0.000  0.000  0.000  0.000
    9  0.000  0.000  0.000  0.000  0.000  0.002  0.000  0.002  0.000  0.004
   10  0.000  0.000  0.000  0.000  0.000  0.067  0.000  0.067  0.000  0.134
   11  0.000  0.000  0.000  0.000  0.000  0.000  0.000  0.000  0.000  0.000
   12  0.000  0.000  0.000  0.000  0.000  0.004  0.000  0.004  0.000  0.007
   13  0.000  0.000  0.000  0.000  0.000  0.002  0.000  0.002  0.000  0.004
   14  0.000  0.000  0.000  0.000  0.000  0.174  0.000  0.174  0.000  0.348
   15  0.000  0.000  0.000  0.000  0.000  0.002  0.000  0.002  0.000  0.004
   16  0.000  0.000  0.000  0.000  0.000  0.174  0.000  0.174  0.000  0.348
   17  0.000  0.000  0.000  0.000  0.000  0.000  0.000  0.000  0.000  0.000
   18  0.000  0.000  0.000  0.000  0.000  0.004  0.000  0.004  0.000  0.007
   19  0.000  0.000  0.000  0.000  0.000  0.000  0.000  0.000  0.000  0.000
   20  0.000  0.000  0.000  0.000  0.000  0.000  0.000  0.000  0.000  0.000