 vasp.6.3.2 27Jun22 (build Jan 20 2026 21:31:33) complex                         
 executed on             LinuxGNU date 2026.01.20  22:12:56
 running   30 mpi-ranks, with    1 threads/rank
 distrk:  each k-point on    2 cores,   15 groups
 distr:  one band on NCORE=   2 cores,    1 groups


--------------------------------------------------------------------------------------------------------


 INCAR:
   NCORE = 2
   KPAR = 15
   NSIM = 4
   LPLANE = .TRUE.
   ISTART = 1            (Read existing wavefunction, if there)
   ISPIN = 1            (Non-Spin polarised DFT)
   LREAL = .FALSE.       (Projection operators: automatic)
   ENCUT = 500         (Cut-off energy for plane wave basis set, in eV)
   LWAVE = .TRUE.        (Write WAVECAR or not)
   LCHARG = .TRUE.        (Write CHGCAR or not)
   ADDGRID = .TRUE.        (Increase grid, helps GGA convergence)
   ISMEAR = 0            (gaussian smearing method)
   SIGMA = 0.05         (please check the width of the smearing)
   LORBIT = 11           (PAW radii for projected DOS)
   NEDOS = 1000         (DOSCAR points)
   NELM = 60           (Max electronic SCF steps)
   EDIFF = 1E-06        (SCF energy convergence, in eV)
   LHFCALC = .TRUE.       (Activate HF)
   AEXX = 0.25        (25% HF exact exchange, adjusted this value to reproduce experimental band gap)
   HFSCREEN = 0.2         (Switch to screened exchange, e.g. HSE06)
   ALGO = ALL         (Electronic Minimisation Algorithm, ALGO\=58)
   TIME = 0.4         (Timestep for IALGO5X)
   PRECFOCK = N           (HF FFT grid)

 POTCAR:    PAW_PBE Ge_d 03Jul2007                
 POTCAR:    PAW_PBE Ge_d 03Jul2007                
   VRHFIN =Ge: 3d4s4p                                                                               
   LEXCH  = PE                                                                                      
   EATOM  =  2596.2402 eV,  190.8183 Ry                                                             
                                                                                                    
   TITEL  = PAW_PBE Ge_d 03Jul2007                                                                  
   LULTRA =        F    use ultrasoft PP ?                                                          
   IUNSCR =        1    unscreen: 0-lin 1-nonlin 2-no                                               
   RPACOR =    2.000    partial core radius                                                         
   POMASS =   72.610; ZVAL   =   14.000    mass and valenz                                          
   RCORE  =    2.300    outmost cutoff radius                                                       
   RWIGS  =    2.300; RWIGS  =    1.217    wigner-seitz radius (au A)                               
   ENMAX  =  310.294; ENMIN  =  232.720 eV                                                          
   ICORE  =        3    local potential                                                             
   LCOR   =        T    correct aug charges                                                         
   LPAW   =        T    paw PP                                                                      
   EAUG   =  531.356                                                                                
   DEXC   =    0.000                                                                                
   RMAX   =    2.342    core radius for proj-oper                                                   
   RAUG   =    1.300    factor for augmentation sphere                                              
   RDEP   =    2.318    radius for radial grids                                                     
   RDEPT  =    1.783    core radius for aug-charge                                                  
                                                                                                    
   Atomic configuration                                                                             
    9 entries                                                                                       
     n  l   j            E        occ.                                                              
     1  0  0.50    -10959.8463   2.0000                                                             
     2  0  0.50     -1371.6056   2.0000                                                             
     2  1  1.50     -1198.4791   6.0000                                                             
     3  0  0.50      -168.4733   2.0000                                                             
     3  1  1.50      -115.6019   6.0000                                                             
     3  2  2.50       -29.3106  10.0000                                                             
     4  0  0.50       -11.7309   2.0000                                                             
     4  1  0.50        -3.8952   2.0000                                                             
     4  3  2.50        -4.0817   0.0000                                                             
   Description                                                                                      
     l       E           TYP  RCUT    TYP  RCUT                                                     
     2    -29.3105938     23  2.200                                                                 
     2    -13.6058260     23  2.200                                                                 
     0    -11.7309493     23  2.300                                                                 
     0     -7.4578696     23  2.300                                                                 
     1     -3.8952261     23  2.300                                                                 
     1      6.1178114     23  2.300                                                                 
     3     -1.3605826     23  2.300                                                                 
  local pseudopotential read in
  partial core-charges read in
  partial kinetic energy density read in
  atomic valenz-charges read in
  non local Contribution for L=           2  read in
    real space projection operators read in
  non local Contribution for L=           2  read in
    real space projection operators read in
  non local Contribution for L=           0  read in
    real space projection operators read in
  non local Contribution for L=           0  read in
    real space projection operators read in
  non local Contribution for L=           1  read in
    real space projection operators read in
  non local Contribution for L=           1  read in
    real space projection operators read in
    PAW grid and wavefunctions read in

   number of l-projection  operators is LMAX  =           6
   number of lm-projection operators is LMMAX =          18

  PAW_PBE Ge_d 03Jul2007                :
 energy of atom  1       EATOM=-2596.2402
 kinetic energy error for atom=    0.0033 (will be added to EATOM!!)


 POSCAR: Primitive Cell
  positions in direct lattice
  No initial velocities read in
 exchange correlation table for  LEXCH =        8
   RHO(1)=    0.500       N(1)  =     2000
   RHO(2)=  100.500       N(2)  =     4000



--------------------------------------------------------------------------------------------------------


 ion  position               nearest neighbor table
   1  0.500  0.500  0.500-   2 2.49   2 2.49   2 2.49   2 2.49
   2  0.750  0.750  0.750-   1 2.49   1 2.49   1 2.49   1 2.49

  LATTYP: Found a face centered cubic cell.
 ALAT       =     5.7450141918
  
  Lattice vectors:
  
 A1 = (   0.0000000000,   2.8725070959,   2.8725070959)
 A2 = (   2.8725070959,   0.0000000000,   2.8725070959)
 A3 = (   2.8725070959,   2.8725070959,   0.0000000000)


Analysis of symmetry for initial positions (statically):
=====================================================================
 Subroutine PRICEL returns:
 Original cell was already a primitive cell.
 

 Routine SETGRP: Setting up the symmetry group for a 
 face centered cubic supercell.


 Subroutine GETGRP returns: Found 48 space group operations
 (whereof 24 operations were pure point group operations)
 out of a pool of 48 trial point group operations.


The static configuration has the point symmetry T_d .
 The point group associated with its full space group is O_h .


Analysis of symmetry for dynamics (positions and initial velocities):
=====================================================================
 Subroutine PRICEL returns:
 Original cell was already a primitive cell.
 

 Routine SETGRP: Setting up the symmetry group for a 
 face centered cubic supercell.


 Subroutine GETGRP returns: Found 48 space group operations
 (whereof 24 operations were pure point group operations)
 out of a pool of 48 trial point group operations.


The dynamic configuration has the point symmetry T_d .
 The point group associated with its full space group is O_h .


 Subroutine INISYM returns: Found 48 space group operations
 (whereof 24 operations are pure point group operations),
 and found     1 'primitive' translations


----------------------------------------------------------------------------------------

                                     Primitive cell                                     

  volume of cell :      47.4038

  direct lattice vectors                    reciprocal lattice vectors
     0.000000000  2.872507096  2.872507096    -0.174063974  0.174063974  0.174063974
     2.872507096  0.000000000  2.872507096     0.174063974 -0.174063974  0.174063974
     2.872507096  2.872507096  0.000000000     0.174063974  0.174063974 -0.174063974

  length of vectors
     4.062338493  4.062338493  4.062338493     0.301487646  0.301487646  0.301487646

  position of ions in fractional coordinates (direct lattice)
     0.500000000  0.500000000  0.500000000
     0.750000000  0.750000000  0.750000000

  ion indices of the primitive-cell ions
   primitive index   ion index
                 1           1
                 2           2

----------------------------------------------------------------------------------------



 KPOINTS: 0.030  10  10  10   47  0.050   94    6 

Read explicit list of k-points.

 Found    141 k-points:

 Following reciprocal coordinates:
            Coordinates               Weight
  0.000000  0.000000  0.000000      0.001000
  0.100000  0.000000  0.000000      0.008000
  0.200000  0.000000  0.000000      0.008000
  0.300000  0.000000  0.000000      0.008000
  0.400000  0.000000  0.000000      0.008000
  0.500000  0.000000  0.000000      0.004000
  0.100000  0.100000  0.000000      0.006000
  0.200000  0.100000  0.000000      0.024000
  0.300000  0.100000  0.000000      0.024000
  0.400000  0.100000  0.000000      0.024000
  0.500000  0.100000  0.000000      0.024000
 -0.400000  0.100000  0.000000      0.024000
 -0.300000  0.100000  0.000000      0.024000
 -0.200000  0.100000  0.000000      0.024000
 -0.100000  0.100000  0.000000      0.012000
  0.200000  0.200000  0.000000      0.006000
  0.300000  0.200000  0.000000      0.024000
  0.400000  0.200000  0.000000      0.024000
  0.500000  0.200000  0.000000      0.024000
 -0.400000  0.200000  0.000000      0.024000
 -0.300000  0.200000  0.000000      0.024000
 -0.200000  0.200000  0.000000      0.012000
  0.300000  0.300000  0.000000      0.006000
  0.400000  0.300000  0.000000      0.024000
  0.500000  0.300000  0.000000      0.024000
 -0.400000  0.300000  0.000000      0.024000
 -0.300000  0.300000  0.000000      0.012000
  0.400000  0.400000  0.000000      0.006000
  0.500000  0.400000  0.000000      0.024000
 -0.400000  0.400000  0.000000      0.012000
  0.500000  0.500000  0.000000      0.003000
  0.300000  0.200000  0.100000      0.024000
  0.400000  0.200000  0.100000      0.048000
  0.500000  0.200000  0.100000      0.048000
 -0.400000  0.200000  0.100000      0.024000
  0.400000  0.300000  0.100000      0.024000
  0.500000  0.300000  0.100000      0.048000
 -0.400000  0.300000  0.100000      0.048000
 -0.300000  0.300000  0.100000      0.048000
 -0.200000  0.300000  0.100000      0.024000
  0.500000  0.400000  0.100000      0.024000
 -0.400000  0.400000  0.100000      0.048000
 -0.300000  0.400000  0.100000      0.024000
 -0.400000  0.500000  0.100000      0.012000
 -0.400000  0.400000  0.200000      0.024000
 -0.300000  0.400000  0.200000      0.024000
 -0.300000  0.500000  0.200000      0.012000
  0.000000  0.000000  0.000000      0.000000
  0.025000  0.000000  0.025000      0.000000
  0.050000  0.000000  0.050000      0.000000
  0.075000  0.000000  0.075000      0.000000
  0.100000  0.000000  0.100000      0.000000
  0.125000  0.000000  0.125000      0.000000
  0.150000  0.000000  0.150000      0.000000
  0.175000  0.000000  0.175000      0.000000
  0.200000  0.000000  0.200000      0.000000
  0.225000  0.000000  0.225000      0.000000
  0.250000  0.000000  0.250000      0.000000
  0.275000  0.000000  0.275000      0.000000
  0.300000  0.000000  0.300000      0.000000
  0.325000  0.000000  0.325000      0.000000
  0.350000  0.000000  0.350000      0.000000
  0.375000  0.000000  0.375000      0.000000
  0.400000  0.000000  0.400000      0.000000
  0.425000  0.000000  0.425000      0.000000
  0.450000  0.000000  0.450000      0.000000
  0.475000  0.000000  0.475000      0.000000
  0.500000  0.000000  0.500000      0.000000
  0.500000  0.000000  0.500000      0.000000
  0.520833  0.041667  0.520833      0.000000
  0.541667  0.083333  0.541667      0.000000
  0.562500  0.125000  0.562500      0.000000
  0.583333  0.166667  0.583333      0.000000
  0.604167  0.208333  0.604167      0.000000
  0.625000  0.250000  0.625000      0.000000
  0.375000  0.375000  0.750000      0.000000
  0.357955  0.357955  0.715909      0.000000
  0.340909  0.340909  0.681818      0.000000
  0.323864  0.323864  0.647727      0.000000
  0.306818  0.306818  0.613636      0.000000
  0.289773  0.289773  0.579545      0.000000
  0.272727  0.272727  0.545455      0.000000
  0.255682  0.255682  0.511364      0.000000
  0.238636  0.238636  0.477273      0.000000
  0.221591  0.221591  0.443182      0.000000
  0.204545  0.204545  0.409091      0.000000
  0.187500  0.187500  0.375000      0.000000
  0.170455  0.170455  0.340909      0.000000
  0.153409  0.153409  0.306818      0.000000
  0.136364  0.136364  0.272727      0.000000
  0.119318  0.119318  0.238636      0.000000
  0.102273  0.102273  0.204545      0.000000
  0.085227  0.085227  0.170455      0.000000
  0.068182  0.068182  0.136364      0.000000
  0.051136  0.051136  0.102273      0.000000
  0.034091  0.034091  0.068182      0.000000
  0.017045  0.017045  0.034091      0.000000
  0.000000  0.000000  0.000000      0.000000
  0.000000  0.000000  0.000000      0.000000
  0.029412  0.029412  0.029412      0.000000
  0.058824  0.058824  0.058824      0.000000
  0.088235  0.088235  0.088235      0.000000
  0.117647  0.117647  0.117647      0.000000
  0.147059  0.147059  0.147059      0.000000
  0.176471  0.176471  0.176471      0.000000
  0.205882  0.205882  0.205882      0.000000
  0.235294  0.235294  0.235294      0.000000
  0.264706  0.264706  0.264706      0.000000
  0.294118  0.294118  0.294118      0.000000
  0.323529  0.323529  0.323529      0.000000
  0.352941  0.352941  0.352941      0.000000
  0.382353  0.382353  0.382353      0.000000
  0.411765  0.411765  0.411765      0.000000
  0.441176  0.441176  0.441176      0.000000
  0.470588  0.470588  0.470588      0.000000
  0.500000  0.500000  0.500000      0.000000
  0.500000  0.500000  0.500000      0.000000
  0.500000  0.482143  0.517857      0.000000
  0.500000  0.464286  0.535714      0.000000
  0.500000  0.446429  0.553571      0.000000
  0.500000  0.428571  0.571429      0.000000
  0.500000  0.410714  0.589286      0.000000
  0.500000  0.392857  0.607143      0.000000
  0.500000  0.375000  0.625000      0.000000
  0.500000  0.357143  0.642857      0.000000
  0.500000  0.339286  0.660714      0.000000
  0.500000  0.321429  0.678571      0.000000
  0.500000  0.303571  0.696429      0.000000
  0.500000  0.285714  0.714286      0.000000
  0.500000  0.267857  0.732143      0.000000
  0.500000  0.250000  0.750000      0.000000
  0.500000  0.250000  0.750000      0.000000
  0.500000  0.222222  0.722222      0.000000
  0.500000  0.194444  0.694444      0.000000
  0.500000  0.166667  0.666667      0.000000
  0.500000  0.138889  0.638889      0.000000
  0.500000  0.111111  0.611111      0.000000
  0.500000  0.083333  0.583333      0.000000
  0.500000  0.055556  0.555556      0.000000
  0.500000  0.027778  0.527778      0.000000
  0.500000  0.000000  0.500000      0.000000

 Following cartesian coordinates:
            Coordinates               Weight
  0.000000  0.000000  0.000000      0.001000
 -0.017406  0.017406  0.017406      0.008000
 -0.034813  0.034813  0.034813      0.008000
 -0.052219  0.052219  0.052219      0.008000
 -0.069626  0.069626  0.069626      0.008000
 -0.087032  0.087032  0.087032      0.004000
 -0.000000  0.000000  0.034813      0.006000
 -0.017406  0.017406  0.052219      0.024000
 -0.034813  0.034813  0.069626      0.024000
 -0.052219  0.052219  0.087032      0.024000
 -0.069626  0.069626  0.104438      0.024000
  0.087032 -0.087032 -0.052219      0.024000
  0.069626 -0.069626 -0.034813      0.024000
  0.052219 -0.052219 -0.017406      0.024000
  0.034813 -0.034813 -0.000000      0.012000
 -0.000000  0.000000  0.069626      0.006000
 -0.017406  0.017406  0.087032      0.024000
 -0.034813  0.034813  0.104438      0.024000
 -0.052219  0.052219  0.121845      0.024000
  0.104438 -0.104438 -0.034813      0.024000
  0.087032 -0.087032 -0.017406      0.024000
  0.069626 -0.069626 -0.000000      0.012000
  0.000000 -0.000000  0.104438      0.006000
 -0.017406  0.017406  0.121845      0.024000
 -0.034813  0.034813  0.139251      0.024000
  0.121845 -0.121845 -0.017406      0.024000
  0.104438 -0.104438  0.000000      0.012000
 -0.000000  0.000000  0.139251      0.006000
 -0.017406  0.017406  0.156658      0.024000
  0.139251 -0.139251 -0.000000      0.012000
  0.000000  0.000000  0.174064      0.003000
  0.000000  0.034813  0.069626      0.024000
 -0.017406  0.052219  0.087032      0.048000
 -0.034813  0.069626  0.104438      0.048000
  0.121845 -0.087032 -0.052219      0.024000
 -0.000000  0.034813  0.104438      0.024000
 -0.017406  0.052219  0.121845      0.048000
  0.139251 -0.104438 -0.034813      0.048000
  0.121845 -0.087032 -0.017406      0.048000
  0.104438 -0.069626 -0.000000      0.024000
  0.000000  0.034813  0.139251      0.024000
  0.156658 -0.121845 -0.017406      0.048000
  0.139251 -0.104438  0.000000      0.024000
  0.174064 -0.139251 -0.000000      0.012000
  0.174064 -0.104438 -0.034813      0.024000
  0.156658 -0.087032 -0.017406      0.024000
  0.174064 -0.104438  0.000000      0.012000
  0.000000  0.000000  0.000000      0.000000
 -0.000000  0.008703  0.000000      0.000000
 -0.000000  0.017406  0.000000      0.000000
  0.000000  0.026110 -0.000000      0.000000
 -0.000000  0.034813  0.000000      0.000000
  0.000000  0.043516  0.000000      0.000000
  0.000000  0.052219 -0.000000      0.000000
 -0.000000  0.060922  0.000000      0.000000
 -0.000000  0.069626  0.000000      0.000000
 -0.000000  0.078329  0.000000      0.000000
  0.000000  0.087032  0.000000      0.000000
 -0.000000  0.095735  0.000000      0.000000
  0.000000  0.104438 -0.000000      0.000000
  0.000000  0.113142 -0.000000      0.000000
 -0.000000  0.121845  0.000000      0.000000
 -0.000000  0.130548  0.000000      0.000000
 -0.000000  0.139251  0.000000      0.000000
 -0.000000  0.147954  0.000000      0.000000
 -0.000000  0.156658  0.000000      0.000000
  0.000000  0.165361 -0.000000      0.000000
  0.000000  0.174064  0.000000      0.000000
  0.000000  0.174064  0.000000      0.000000
  0.007253  0.174064  0.007253      0.000000
  0.014505  0.174064  0.014505      0.000000
  0.021758  0.174064  0.021758      0.000000
  0.029011  0.174064  0.029011      0.000000
  0.036263  0.174064  0.036263      0.000000
  0.043516  0.174064  0.043516      0.000000
  0.130548  0.130548  0.000000      0.000000
  0.124614  0.124614  0.000000      0.000000
  0.118680  0.118680  0.000000      0.000000
  0.112746  0.112746  0.000000      0.000000
  0.106812  0.106812 -0.000000      0.000000
  0.100878  0.100878  0.000000      0.000000
  0.094944  0.094944 -0.000000      0.000000
  0.089010  0.089010  0.000000      0.000000
  0.083076  0.083076 -0.000000      0.000000
  0.077142  0.077142 -0.000000      0.000000
  0.071208  0.071208 -0.000000      0.000000
  0.065274  0.065274  0.000000      0.000000
  0.059340  0.059340  0.000000      0.000000
  0.053406  0.053406 -0.000000      0.000000
  0.047472  0.047472  0.000000      0.000000
  0.041538  0.041538 -0.000000      0.000000
  0.035604  0.035604  0.000000      0.000000
  0.029670  0.029670 -0.000000      0.000000
  0.023736  0.023736  0.000000      0.000000
  0.017802  0.017802 -0.000000      0.000000
  0.011868  0.011868  0.000000      0.000000
  0.005934  0.005934 -0.000000      0.000000
  0.000000  0.000000  0.000000      0.000000
  0.000000  0.000000  0.000000      0.000000
  0.005120  0.005120  0.005120      0.000000
  0.010239  0.010239  0.010239      0.000000
  0.015359  0.015359  0.015359      0.000000
  0.020478  0.020478  0.020478      0.000000
  0.025598  0.025598  0.025598      0.000000
  0.030717  0.030717  0.030717      0.000000
  0.035837  0.035837  0.035837      0.000000
  0.040956  0.040956  0.040956      0.000000
  0.046076  0.046076  0.046076      0.000000
  0.051195  0.051195  0.051195      0.000000
  0.056315  0.056315  0.056315      0.000000
  0.061434  0.061434  0.061434      0.000000
  0.066554  0.066554  0.066554      0.000000
  0.071673  0.071673  0.071673      0.000000
  0.076793  0.076793  0.076793      0.000000
  0.081912  0.081912  0.081912      0.000000
  0.087032  0.087032  0.087032      0.000000
  0.087032  0.087032  0.087032      0.000000
  0.087032  0.093249  0.080815      0.000000
  0.087032  0.099465  0.074599      0.000000
  0.087032  0.105682  0.068382      0.000000
  0.087032  0.111898  0.062166      0.000000
  0.087032  0.118115  0.055949      0.000000
  0.087032  0.124331  0.049733      0.000000
  0.087032  0.130548  0.043516      0.000000
  0.087032  0.136765  0.037299      0.000000
  0.087032  0.142981  0.031083      0.000000
  0.087032  0.149198  0.024866      0.000000
  0.087032  0.155414  0.018650      0.000000
  0.087032  0.161631  0.012433      0.000000
  0.087032  0.167847  0.006217      0.000000
  0.087032  0.174064  0.000000      0.000000
  0.087032  0.174064  0.000000      0.000000
  0.077362  0.174064  0.000000      0.000000
  0.067692  0.174064  0.000000      0.000000
  0.058021  0.174064  0.000000      0.000000
  0.048351  0.174064  0.000000      0.000000
  0.038681  0.174064 -0.000000      0.000000
  0.029011  0.174064 -0.000000      0.000000
  0.019340  0.174064 -0.000000      0.000000
  0.009670  0.174064  0.000000      0.000000
  0.000000  0.174064  0.000000      0.000000

 
 Subroutine IBZKPT_HF returns following result:
 ==============================================
 
 Found   1094 k-points in 1st BZ
 the following   1094 k-points will be used (e.g. in the exchange kernel)
 Following reciprocal coordinates:   # in IRBZ
  0.000000  0.000000  0.000000    0.00100000   1 t-inv F
  0.100000  0.000000  0.000000    0.00100000   2 t-inv F
  0.200000  0.000000  0.000000    0.00100000   3 t-inv F
  0.300000  0.000000  0.000000    0.00100000   4 t-inv F
  0.400000  0.000000  0.000000    0.00100000   5 t-inv F
  0.500000  0.000000  0.000000    0.00100000   6 t-inv F
  0.100000  0.100000  0.000000    0.00100000   7 t-inv F
  0.200000  0.100000  0.000000    0.00100000   8 t-inv F
  0.300000  0.100000  0.000000    0.00100000   9 t-inv F
  0.400000  0.100000  0.000000    0.00100000  10 t-inv F
  0.500000  0.100000  0.000000    0.00100000  11 t-inv F
 -0.400000  0.100000  0.000000    0.00100000  12 t-inv F
 -0.300000  0.100000  0.000000    0.00100000  13 t-inv F
 -0.200000  0.100000  0.000000    0.00100000  14 t-inv F
 -0.100000  0.100000  0.000000    0.00100000  15 t-inv F
  0.200000  0.200000  0.000000    0.00100000  16 t-inv F
  0.300000  0.200000  0.000000    0.00100000  17 t-inv F
  0.400000  0.200000  0.000000    0.00100000  18 t-inv F
  0.500000  0.200000  0.000000    0.00100000  19 t-inv F
 -0.400000  0.200000  0.000000    0.00100000  20 t-inv F
 -0.300000  0.200000  0.000000    0.00100000  21 t-inv F
 -0.200000  0.200000  0.000000    0.00100000  22 t-inv F
  0.300000  0.300000  0.000000    0.00100000  23 t-inv F
  0.400000  0.300000  0.000000    0.00100000  24 t-inv F
  0.500000  0.300000  0.000000    0.00100000  25 t-inv F
 -0.400000  0.300000  0.000000    0.00100000  26 t-inv F
 -0.300000  0.300000  0.000000    0.00100000  27 t-inv F
  0.400000  0.400000  0.000000    0.00100000  28 t-inv F
  0.500000  0.400000  0.000000    0.00100000  29 t-inv F
 -0.400000  0.400000  0.000000    0.00100000  30 t-inv F
  0.500000  0.500000  0.000000    0.00100000  31 t-inv F
  0.300000  0.200000  0.100000    0.00100000  32 t-inv F
  0.400000  0.200000  0.100000    0.00100000  33 t-inv F
  0.500000  0.200000  0.100000    0.00100000  34 t-inv F
 -0.400000  0.200000  0.100000    0.00100000  35 t-inv F
  0.400000  0.300000  0.100000    0.00100000  36 t-inv F
  0.500000  0.300000  0.100000    0.00100000  37 t-inv F
 -0.400000  0.300000  0.100000    0.00100000  38 t-inv F
 -0.300000  0.300000  0.100000    0.00100000  39 t-inv F
 -0.200000  0.300000  0.100000    0.00100000  40 t-inv F
  0.500000  0.400000  0.100000    0.00100000  41 t-inv F
 -0.400000  0.400000  0.100000    0.00100000  42 t-inv F
 -0.300000  0.400000  0.100000    0.00100000  43 t-inv F
 -0.400000  0.500000  0.100000    0.00100000  44 t-inv F
 -0.400000  0.400000  0.200000    0.00100000  45 t-inv F
 -0.300000  0.400000  0.200000    0.00100000  46 t-inv F
 -0.300000  0.500000  0.200000    0.00100000  47 t-inv F
  0.000000  0.000000  0.000000    0.00000000  48 t-inv F
  0.025000  0.000000  0.025000    0.00000000  49 t-inv F
  0.050000  0.000000  0.050000    0.00000000  50 t-inv F
  0.075000  0.000000  0.075000    0.00000000  51 t-inv F
  0.100000  0.000000  0.100000    0.00000000  52 t-inv F
  0.125000  0.000000  0.125000    0.00000000  53 t-inv F
  0.150000  0.000000  0.150000    0.00000000  54 t-inv F
  0.175000  0.000000  0.175000    0.00000000  55 t-inv F
  0.200000  0.000000  0.200000    0.00000000  56 t-inv F
  0.225000  0.000000  0.225000    0.00000000  57 t-inv F
  0.250000  0.000000  0.250000    0.00000000  58 t-inv F
  0.275000  0.000000  0.275000    0.00000000  59 t-inv F
  0.300000  0.000000  0.300000    0.00000000  60 t-inv F
  0.325000  0.000000  0.325000    0.00000000  61 t-inv F
  0.350000  0.000000  0.350000    0.00000000  62 t-inv F
  0.375000  0.000000  0.375000    0.00000000  63 t-inv F
  0.400000  0.000000  0.400000    0.00000000  64 t-inv F
  0.425000  0.000000  0.425000    0.00000000  65 t-inv F
  0.450000  0.000000  0.450000    0.00000000  66 t-inv F
  0.475000  0.000000  0.475000    0.00000000  67 t-inv F
  0.500000  0.000000  0.500000    0.00000000  68 t-inv F
  0.500000  0.000000  0.500000    0.00000000  69 t-inv F
  0.520833  0.041667  0.520833    0.00000000  70 t-inv F
  0.541667  0.083333  0.541667    0.00000000  71 t-inv F
  0.562500  0.125000  0.562500    0.00000000  72 t-inv F
  0.583333  0.166667  0.583333    0.00000000  73 t-inv F
  0.604167  0.208333  0.604167    0.00000000  74 t-inv F
  0.625000  0.250000  0.625000    0.00000000  75 t-inv F
  0.375000  0.375000  0.750000    0.00000000  76 t-inv F
  0.357955  0.357955  0.715909    0.00000000  77 t-inv F
  0.340909  0.340909  0.681818    0.00000000  78 t-inv F
  0.323864  0.323864  0.647727    0.00000000  79 t-inv F
  0.306818  0.306818  0.613636    0.00000000  80 t-inv F
  0.289773  0.289773  0.579545    0.00000000  81 t-inv F
  0.272727  0.272727  0.545455    0.00000000  82 t-inv F
  0.255682  0.255682  0.511364    0.00000000  83 t-inv F
  0.238636  0.238636  0.477273    0.00000000  84 t-inv F
  0.221591  0.221591  0.443182    0.00000000  85 t-inv F
  0.204545  0.204545  0.409091    0.00000000  86 t-inv F
  0.187500  0.187500  0.375000    0.00000000  87 t-inv F
  0.170455  0.170455  0.340909    0.00000000  88 t-inv F
  0.153409  0.153409  0.306818    0.00000000  89 t-inv F
  0.136364  0.136364  0.272727    0.00000000  90 t-inv F
  0.119318  0.119318  0.238636    0.00000000  91 t-inv F
  0.102273  0.102273  0.204545    0.00000000  92 t-inv F
  0.085227  0.085227  0.170455    0.00000000  93 t-inv F
  0.068182  0.068182  0.136364    0.00000000  94 t-inv F
  0.051136  0.051136  0.102273    0.00000000  95 t-inv F
  0.034091  0.034091  0.068182    0.00000000  96 t-inv F
  0.017045  0.017045  0.034091    0.00000000  97 t-inv F
  0.000000  0.000000  0.000000    0.00000000  98 t-inv F
  0.000000  0.000000  0.000000    0.00000000  99 t-inv F
  0.029412  0.029412  0.029412    0.00000000 100 t-inv F
  0.058824  0.058824  0.058824    0.00000000 101 t-inv F
  0.088235  0.088235  0.088235    0.00000000 102 t-inv F
  0.117647  0.117647  0.117647    0.00000000 103 t-inv F
  0.147059  0.147059  0.147059    0.00000000 104 t-inv F
  0.176471  0.176471  0.176471    0.00000000 105 t-inv F
  0.205882  0.205882  0.205882    0.00000000 106 t-inv F
  0.235294  0.235294  0.235294    0.00000000 107 t-inv F
  0.264706  0.264706  0.264706    0.00000000 108 t-inv F
  0.294118  0.294118  0.294118    0.00000000 109 t-inv F
  0.323529  0.323529  0.323529    0.00000000 110 t-inv F
  0.352941  0.352941  0.352941    0.00000000 111 t-inv F
  0.382353  0.382353  0.382353    0.00000000 112 t-inv F
  0.411765  0.411765  0.411765    0.00000000 113 t-inv F
  0.441176  0.441176  0.441176    0.00000000 114 t-inv F
  0.470588  0.470588  0.470588    0.00000000 115 t-inv F
  0.500000  0.500000  0.500000    0.00000000 116 t-inv F
  0.500000  0.500000  0.500000    0.00000000 117 t-inv F
  0.500000  0.482143  0.517857    0.00000000 118 t-inv F
  0.500000  0.464286  0.535714    0.00000000 119 t-inv F
  0.500000  0.446429  0.553571    0.00000000 120 t-inv F
  0.500000  0.428571  0.571429    0.00000000 121 t-inv F
  0.500000  0.410714  0.589286    0.00000000 122 t-inv F
  0.500000  0.392857  0.607143    0.00000000 123 t-inv F
  0.500000  0.375000  0.625000    0.00000000 124 t-inv F
  0.500000  0.357143  0.642857    0.00000000 125 t-inv F
  0.500000  0.339286  0.660714    0.00000000 126 t-inv F
  0.500000  0.321429  0.678571    0.00000000 127 t-inv F
  0.500000  0.303571  0.696429    0.00000000 128 t-inv F
  0.500000  0.285714  0.714286    0.00000000 129 t-inv F
  0.500000  0.267857  0.732143    0.00000000 130 t-inv F
  0.500000  0.250000  0.750000    0.00000000 131 t-inv F
  0.500000  0.250000  0.750000    0.00000000 132 t-inv F
  0.500000  0.222222  0.722222    0.00000000 133 t-inv F
  0.500000  0.194444  0.694444    0.00000000 134 t-inv F
  0.500000  0.166667  0.666667    0.00000000 135 t-inv F
  0.500000  0.138889  0.638889    0.00000000 136 t-inv F
  0.500000  0.111111  0.611111    0.00000000 137 t-inv F
  0.500000  0.083333  0.583333    0.00000000 138 t-inv F
  0.500000  0.055556  0.555556    0.00000000 139 t-inv F
  0.500000  0.027778  0.527778    0.00000000 140 t-inv F
  0.500000  0.000000  0.500000    0.00000000 141 t-inv F
  0.000000  0.100000  0.000000    0.00100000   2 t-inv F
  0.000000  0.000000  0.100000    0.00100000   2 t-inv F
 -0.100000 -0.100000 -0.100000    0.00100000   2 t-inv F
 -0.100000  0.000000  0.000000    0.00100000   2 t-inv F
  0.000000 -0.100000  0.000000    0.00100000   2 t-inv F
  0.000000  0.000000 -0.100000    0.00100000   2 t-inv F
  0.100000  0.100000  0.100000    0.00100000   2 t-inv F
  0.000000  0.200000  0.000000    0.00100000   3 t-inv F
  0.000000  0.000000  0.200000    0.00100000   3 t-inv F
 -0.200000 -0.200000 -0.200000    0.00100000   3 t-inv F
 -0.200000  0.000000  0.000000    0.00100000   3 t-inv F
  0.000000 -0.200000  0.000000    0.00100000   3 t-inv F
  0.000000  0.000000 -0.200000    0.00100000   3 t-inv F
  0.200000  0.200000  0.200000    0.00100000   3 t-inv F
  0.000000  0.300000  0.000000    0.00100000   4 t-inv F
  0.000000  0.000000  0.300000    0.00100000   4 t-inv F
 -0.300000 -0.300000 -0.300000    0.00100000   4 t-inv F
 -0.300000  0.000000  0.000000    0.00100000   4 t-inv F
  0.000000 -0.300000  0.000000    0.00100000   4 t-inv F
  0.000000  0.000000 -0.300000    0.00100000   4 t-inv F
  0.300000  0.300000  0.300000    0.00100000   4 t-inv F
  0.000000  0.400000  0.000000    0.00100000   5 t-inv F
  0.000000  0.000000  0.400000    0.00100000   5 t-inv F
 -0.400000 -0.400000 -0.400000    0.00100000   5 t-inv F
 -0.400000  0.000000  0.000000    0.00100000   5 t-inv F
  0.000000 -0.400000  0.000000    0.00100000   5 t-inv F
  0.000000  0.000000 -0.400000    0.00100000   5 t-inv F
  0.400000  0.400000  0.400000    0.00100000   5 t-inv F
  0.000000  0.500000  0.000000    0.00100000   6 t-inv F
  0.000000  0.000000  0.500000    0.00100000   6 t-inv F
 -0.500000 -0.500000 -0.500000    0.00100000   6 t-inv F
  0.000000  0.100000  0.100000    0.00100000   7 t-inv F
  0.100000  0.000000  0.100000    0.00100000   7 t-inv F
 -0.100000 -0.100000  0.000000    0.00100000   7 t-inv F
 -0.100000  0.000000 -0.100000    0.00100000   7 t-inv F
  0.000000 -0.100000 -0.100000    0.00100000   7 t-inv F
  0.000000  0.200000  0.100000    0.00100000   8 t-inv F
  0.100000  0.000000  0.200000    0.00100000   8 t-inv F
 -0.100000 -0.100000  0.100000    0.00100000   8 t-inv F
 -0.200000 -0.100000 -0.200000    0.00100000   8 t-inv F
  0.100000  0.200000  0.000000    0.00100000   8 t-inv F
  0.100000 -0.100000 -0.100000    0.00100000   8 t-inv F
 -0.200000 -0.200000 -0.100000    0.00100000   8 t-inv F
  0.000000  0.100000  0.200000    0.00100000   8 t-inv F
 -0.100000  0.100000 -0.100000    0.00100000   8 t-inv F
 -0.100000 -0.200000 -0.200000    0.00100000   8 t-inv F
  0.200000  0.000000  0.100000    0.00100000   8 t-inv F
 -0.200000 -0.100000  0.000000    0.00100000   8 t-inv F
  0.000000 -0.200000 -0.100000    0.00100000   8 t-inv F
 -0.100000  0.000000 -0.200000    0.00100000   8 t-inv F
  0.100000  0.100000 -0.100000    0.00100000   8 t-inv F
  0.200000  0.100000  0.200000    0.00100000   8 t-inv F
 -0.100000 -0.200000  0.000000    0.00100000   8 t-inv F
 -0.100000  0.100000  0.100000    0.00100000   8 t-inv F
  0.200000  0.200000  0.100000    0.00100000   8 t-inv F
  0.000000 -0.100000 -0.200000    0.00100000   8 t-inv F
  0.100000 -0.100000  0.100000    0.00100000   8 t-inv F
  0.100000  0.200000  0.200000    0.00100000   8 t-inv F
 -0.200000  0.000000 -0.100000    0.00100000   8 t-inv F
  0.000000  0.300000  0.100000    0.00100000   9 t-inv F
  0.100000  0.000000  0.300000    0.00100000   9 t-inv F
 -0.100000 -0.100000  0.200000    0.00100000   9 t-inv F
 -0.300000 -0.200000 -0.300000    0.00100000   9 t-inv F
  0.100000  0.300000  0.000000    0.00100000   9 t-inv F
  0.200000 -0.100000 -0.100000    0.00100000   9 t-inv F
 -0.300000 -0.300000 -0.200000    0.00100000   9 t-inv F
  0.000000  0.100000  0.300000    0.00100000   9 t-inv F
 -0.100000  0.200000 -0.100000    0.00100000   9 t-inv F
 -0.200000 -0.300000 -0.300000    0.00100000   9 t-inv F
  0.300000  0.000000  0.100000    0.00100000   9 t-inv F
 -0.300000 -0.100000  0.000000    0.00100000   9 t-inv F
  0.000000 -0.300000 -0.100000    0.00100000   9 t-inv F
 -0.100000  0.000000 -0.300000    0.00100000   9 t-inv F
  0.100000  0.100000 -0.200000    0.00100000   9 t-inv F
  0.300000  0.200000  0.300000    0.00100000   9 t-inv F
 -0.100000 -0.300000  0.000000    0.00100000   9 t-inv F
 -0.200000  0.100000  0.100000    0.00100000   9 t-inv F
  0.300000  0.300000  0.200000    0.00100000   9 t-inv F
  0.000000 -0.100000 -0.300000    0.00100000   9 t-inv F
  0.100000 -0.200000  0.100000    0.00100000   9 t-inv F
  0.200000  0.300000  0.300000    0.00100000   9 t-inv F
 -0.300000  0.000000 -0.100000    0.00100000   9 t-inv F
  0.000000  0.400000  0.100000    0.00100000  10 t-inv F
  0.100000  0.000000  0.400000    0.00100000  10 t-inv F
 -0.100000 -0.100000  0.300000    0.00100000  10 t-inv F
 -0.400000 -0.300000 -0.400000    0.00100000  10 t-inv F
  0.100000  0.400000  0.000000    0.00100000  10 t-inv F
  0.300000 -0.100000 -0.100000    0.00100000  10 t-inv F
 -0.400000 -0.400000 -0.300000    0.00100000  10 t-inv F
  0.000000  0.100000  0.400000    0.00100000  10 t-inv F
 -0.100000  0.300000 -0.100000    0.00100000  10 t-inv F
 -0.300000 -0.400000 -0.400000    0.00100000  10 t-inv F
  0.400000  0.000000  0.100000    0.00100000  10 t-inv F
 -0.400000 -0.100000  0.000000    0.00100000  10 t-inv F
  0.000000 -0.400000 -0.100000    0.00100000  10 t-inv F
 -0.100000  0.000000 -0.400000    0.00100000  10 t-inv F
  0.100000  0.100000 -0.300000    0.00100000  10 t-inv F
  0.400000  0.300000  0.400000    0.00100000  10 t-inv F
 -0.100000 -0.400000  0.000000    0.00100000  10 t-inv F
 -0.300000  0.100000  0.100000    0.00100000  10 t-inv F
  0.400000  0.400000  0.300000    0.00100000  10 t-inv F
  0.000000 -0.100000 -0.400000    0.00100000  10 t-inv F
  0.100000 -0.300000  0.100000    0.00100000  10 t-inv F
  0.300000  0.400000  0.400000    0.00100000  10 t-inv F
 -0.400000  0.000000 -0.100000    0.00100000  10 t-inv F
  0.000000  0.500000  0.100000    0.00100000  11 t-inv F
  0.100000  0.000000  0.500000    0.00100000  11 t-inv F
 -0.100000 -0.100000  0.400000    0.00100000  11 t-inv F
 -0.500000 -0.400000 -0.500000    0.00100000  11 t-inv F
  0.100000  0.500000  0.000000    0.00100000  11 t-inv F
  0.400000 -0.100000 -0.100000    0.00100000  11 t-inv F
 -0.500000 -0.500000 -0.400000    0.00100000  11 t-inv F
  0.000000  0.100000  0.500000    0.00100000  11 t-inv F
 -0.100000  0.400000 -0.100000    0.00100000  11 t-inv F
 -0.400000 -0.500000 -0.500000    0.00100000  11 t-inv F
  0.500000  0.000000  0.100000    0.00100000  11 t-inv F
 -0.500000 -0.100000  0.000000    0.00100000  11 t-inv F
  0.000000 -0.500000 -0.100000    0.00100000  11 t-inv F
 -0.100000  0.000000 -0.500000    0.00100000  11 t-inv F
  0.100000  0.100000 -0.400000    0.00100000  11 t-inv F
  0.500000  0.400000  0.500000    0.00100000  11 t-inv F
 -0.100000 -0.500000  0.000000    0.00100000  11 t-inv F
 -0.400000  0.100000  0.100000    0.00100000  11 t-inv F
  0.500000  0.500000  0.400000    0.00100000  11 t-inv F
  0.000000 -0.100000 -0.500000    0.00100000  11 t-inv F
  0.100000 -0.400000  0.100000    0.00100000  11 t-inv F
  0.400000  0.500000  0.500000    0.00100000  11 t-inv F
 -0.500000  0.000000 -0.100000    0.00100000  11 t-inv F
  0.000000 -0.400000  0.100000    0.00100000  12 t-inv F
  0.100000  0.000000 -0.400000    0.00100000  12 t-inv F
 -0.100000 -0.100000 -0.500000    0.00100000  12 t-inv F
  0.400000  0.500000  0.400000    0.00100000  12 t-inv F
  0.100000 -0.400000  0.000000    0.00100000  12 t-inv F
 -0.500000 -0.100000 -0.100000    0.00100000  12 t-inv F
  0.400000  0.400000  0.500000    0.00100000  12 t-inv F
  0.000000  0.100000 -0.400000    0.00100000  12 t-inv F
 -0.100000 -0.500000 -0.100000    0.00100000  12 t-inv F
  0.500000  0.400000  0.400000    0.00100000  12 t-inv F
 -0.400000  0.000000  0.100000    0.00100000  12 t-inv F
  0.400000 -0.100000  0.000000    0.00100000  12 t-inv F
  0.000000  0.400000 -0.100000    0.00100000  12 t-inv F
 -0.100000  0.000000  0.400000    0.00100000  12 t-inv F
  0.100000  0.100000  0.500000    0.00100000  12 t-inv F
 -0.400000 -0.500000 -0.400000    0.00100000  12 t-inv F
 -0.100000  0.400000  0.000000    0.00100000  12 t-inv F
  0.500000  0.100000  0.100000    0.00100000  12 t-inv F
 -0.400000 -0.400000 -0.500000    0.00100000  12 t-inv F
  0.000000 -0.100000  0.400000    0.00100000  12 t-inv F
  0.100000  0.500000  0.100000    0.00100000  12 t-inv F
 -0.500000 -0.400000 -0.400000    0.00100000  12 t-inv F
  0.400000  0.000000 -0.100000    0.00100000  12 t-inv F
  0.000000 -0.300000  0.100000    0.00100000  13 t-inv F
  0.100000  0.000000 -0.300000    0.00100000  13 t-inv F
 -0.100000 -0.100000 -0.400000    0.00100000  13 t-inv F
  0.300000  0.400000  0.300000    0.00100000  13 t-inv F
  0.100000 -0.300000  0.000000    0.00100000  13 t-inv F
 -0.400000 -0.100000 -0.100000    0.00100000  13 t-inv F
  0.300000  0.300000  0.400000    0.00100000  13 t-inv F
  0.000000  0.100000 -0.300000    0.00100000  13 t-inv F
 -0.100000 -0.400000 -0.100000    0.00100000  13 t-inv F
  0.400000  0.300000  0.300000    0.00100000  13 t-inv F
 -0.300000  0.000000  0.100000    0.00100000  13 t-inv F
  0.300000 -0.100000  0.000000    0.00100000  13 t-inv F
  0.000000  0.300000 -0.100000    0.00100000  13 t-inv F
 -0.100000  0.000000  0.300000    0.00100000  13 t-inv F
  0.100000  0.100000  0.400000    0.00100000  13 t-inv F
 -0.300000 -0.400000 -0.300000    0.00100000  13 t-inv F
 -0.100000  0.300000  0.000000    0.00100000  13 t-inv F
  0.400000  0.100000  0.100000    0.00100000  13 t-inv F
 -0.300000 -0.300000 -0.400000    0.00100000  13 t-inv F
  0.000000 -0.100000  0.300000    0.00100000  13 t-inv F
  0.100000  0.400000  0.100000    0.00100000  13 t-inv F
 -0.400000 -0.300000 -0.300000    0.00100000  13 t-inv F
  0.300000  0.000000 -0.100000    0.00100000  13 t-inv F
  0.000000 -0.200000  0.100000    0.00100000  14 t-inv F
  0.100000  0.000000 -0.200000    0.00100000  14 t-inv F
 -0.100000 -0.100000 -0.300000    0.00100000  14 t-inv F
  0.200000  0.300000  0.200000    0.00100000  14 t-inv F
  0.100000 -0.200000  0.000000    0.00100000  14 t-inv F
 -0.300000 -0.100000 -0.100000    0.00100000  14 t-inv F
  0.200000  0.200000  0.300000    0.00100000  14 t-inv F
  0.000000  0.100000 -0.200000    0.00100000  14 t-inv F
 -0.100000 -0.300000 -0.100000    0.00100000  14 t-inv F
  0.300000  0.200000  0.200000    0.00100000  14 t-inv F
 -0.200000  0.000000  0.100000    0.00100000  14 t-inv F
  0.200000 -0.100000  0.000000    0.00100000  14 t-inv F
  0.000000  0.200000 -0.100000    0.00100000  14 t-inv F
 -0.100000  0.000000  0.200000    0.00100000  14 t-inv F
  0.100000  0.100000  0.300000    0.00100000  14 t-inv F
 -0.200000 -0.300000 -0.200000    0.00100000  14 t-inv F
 -0.100000  0.200000  0.000000    0.00100000  14 t-inv F
  0.300000  0.100000  0.100000    0.00100000  14 t-inv F
 -0.200000 -0.200000 -0.300000    0.00100000  14 t-inv F
  0.000000 -0.100000  0.200000    0.00100000  14 t-inv F
  0.100000  0.300000  0.100000    0.00100000  14 t-inv F
 -0.300000 -0.200000 -0.200000    0.00100000  14 t-inv F
  0.200000  0.000000 -0.100000    0.00100000  14 t-inv F
  0.000000 -0.100000  0.100000    0.00100000  15 t-inv F
  0.100000  0.000000 -0.100000    0.00100000  15 t-inv F
 -0.100000 -0.100000 -0.200000    0.00100000  15 t-inv F
  0.100000  0.200000  0.100000    0.00100000  15 t-inv F
  0.100000 -0.100000  0.000000    0.00100000  15 t-inv F
 -0.200000 -0.100000 -0.100000    0.00100000  15 t-inv F
  0.100000  0.100000  0.200000    0.00100000  15 t-inv F
  0.000000  0.100000 -0.100000    0.00100000  15 t-inv F
 -0.100000 -0.200000 -0.100000    0.00100000  15 t-inv F
  0.200000  0.100000  0.100000    0.00100000  15 t-inv F
 -0.100000  0.000000  0.100000    0.00100000  15 t-inv F
  0.000000  0.200000  0.200000    0.00100000  16 t-inv F
  0.200000  0.000000  0.200000    0.00100000  16 t-inv F
 -0.200000 -0.200000  0.000000    0.00100000  16 t-inv F
 -0.200000  0.000000 -0.200000    0.00100000  16 t-inv F
  0.000000 -0.200000 -0.200000    0.00100000  16 t-inv F
  0.000000  0.300000  0.200000    0.00100000  17 t-inv F
  0.200000  0.000000  0.300000    0.00100000  17 t-inv F
 -0.200000 -0.200000  0.100000    0.00100000  17 t-inv F
 -0.300000 -0.100000 -0.300000    0.00100000  17 t-inv F
  0.200000  0.300000  0.000000    0.00100000  17 t-inv F
  0.100000 -0.200000 -0.200000    0.00100000  17 t-inv F
 -0.300000 -0.300000 -0.100000    0.00100000  17 t-inv F
  0.000000  0.200000  0.300000    0.00100000  17 t-inv F
 -0.200000  0.100000 -0.200000    0.00100000  17 t-inv F
 -0.100000 -0.300000 -0.300000    0.00100000  17 t-inv F
  0.300000  0.000000  0.200000    0.00100000  17 t-inv F
 -0.300000 -0.200000  0.000000    0.00100000  17 t-inv F
  0.000000 -0.300000 -0.200000    0.00100000  17 t-inv F
 -0.200000  0.000000 -0.300000    0.00100000  17 t-inv F
  0.200000  0.200000 -0.100000    0.00100000  17 t-inv F
  0.300000  0.100000  0.300000    0.00100000  17 t-inv F
 -0.200000 -0.300000  0.000000    0.00100000  17 t-inv F
 -0.100000  0.200000  0.200000    0.00100000  17 t-inv F
  0.300000  0.300000  0.100000    0.00100000  17 t-inv F
  0.000000 -0.200000 -0.300000    0.00100000  17 t-inv F
  0.200000 -0.100000  0.200000    0.00100000  17 t-inv F
  0.100000  0.300000  0.300000    0.00100000  17 t-inv F
 -0.300000  0.000000 -0.200000    0.00100000  17 t-inv F
  0.000000  0.400000  0.200000    0.00100000  18 t-inv F
  0.200000  0.000000  0.400000    0.00100000  18 t-inv F
 -0.200000 -0.200000  0.200000    0.00100000  18 t-inv F
 -0.400000 -0.200000 -0.400000    0.00100000  18 t-inv F
  0.200000  0.400000  0.000000    0.00100000  18 t-inv F
  0.200000 -0.200000 -0.200000    0.00100000  18 t-inv F
 -0.400000 -0.400000 -0.200000    0.00100000  18 t-inv F
  0.000000  0.200000  0.400000    0.00100000  18 t-inv F
 -0.200000  0.200000 -0.200000    0.00100000  18 t-inv F
 -0.200000 -0.400000 -0.400000    0.00100000  18 t-inv F
  0.400000  0.000000  0.200000    0.00100000  18 t-inv F
 -0.400000 -0.200000  0.000000    0.00100000  18 t-inv F
  0.000000 -0.400000 -0.200000    0.00100000  18 t-inv F
 -0.200000  0.000000 -0.400000    0.00100000  18 t-inv F
  0.200000  0.200000 -0.200000    0.00100000  18 t-inv F
  0.400000  0.200000  0.400000    0.00100000  18 t-inv F
 -0.200000 -0.400000  0.000000    0.00100000  18 t-inv F
 -0.200000  0.200000  0.200000    0.00100000  18 t-inv F
  0.400000  0.400000  0.200000    0.00100000  18 t-inv F
  0.000000 -0.200000 -0.400000    0.00100000  18 t-inv F
  0.200000 -0.200000  0.200000    0.00100000  18 t-inv F
  0.200000  0.400000  0.400000    0.00100000  18 t-inv F
 -0.400000  0.000000 -0.200000    0.00100000  18 t-inv F
  0.000000  0.500000  0.200000    0.00100000  19 t-inv F
  0.200000  0.000000  0.500000    0.00100000  19 t-inv F
 -0.200000 -0.200000  0.300000    0.00100000  19 t-inv F
 -0.500000 -0.300000 -0.500000    0.00100000  19 t-inv F
  0.200000  0.500000  0.000000    0.00100000  19 t-inv F
  0.300000 -0.200000 -0.200000    0.00100000  19 t-inv F
 -0.500000 -0.500000 -0.300000    0.00100000  19 t-inv F
  0.000000  0.200000  0.500000    0.00100000  19 t-inv F
 -0.200000  0.300000 -0.200000    0.00100000  19 t-inv F
 -0.300000 -0.500000 -0.500000    0.00100000  19 t-inv F
  0.500000  0.000000  0.200000    0.00100000  19 t-inv F
 -0.500000 -0.200000  0.000000    0.00100000  19 t-inv F
  0.000000 -0.500000 -0.200000    0.00100000  19 t-inv F
 -0.200000  0.000000 -0.500000    0.00100000  19 t-inv F
  0.200000  0.200000 -0.300000    0.00100000  19 t-inv F
  0.500000  0.300000  0.500000    0.00100000  19 t-inv F
 -0.200000 -0.500000  0.000000    0.00100000  19 t-inv F
 -0.300000  0.200000  0.200000    0.00100000  19 t-inv F
  0.500000  0.500000  0.300000    0.00100000  19 t-inv F
  0.000000 -0.200000 -0.500000    0.00100000  19 t-inv F
  0.200000 -0.300000  0.200000    0.00100000  19 t-inv F
  0.300000  0.500000  0.500000    0.00100000  19 t-inv F
 -0.500000  0.000000 -0.200000    0.00100000  19 t-inv F
  0.000000 -0.400000  0.200000    0.00100000  20 t-inv F
  0.200000  0.000000 -0.400000    0.00100000  20 t-inv F
 -0.200000 -0.200000 -0.600000    0.00100000  20 t-inv F
  0.400000  0.600000  0.400000    0.00100000  20 t-inv F
  0.200000 -0.400000  0.000000    0.00100000  20 t-inv F
 -0.600000 -0.200000 -0.200000    0.00100000  20 t-inv F
  0.400000  0.400000  0.600000    0.00100000  20 t-inv F
  0.000000  0.200000 -0.400000    0.00100000  20 t-inv F
 -0.200000 -0.600000 -0.200000    0.00100000  20 t-inv F
  0.600000  0.400000  0.400000    0.00100000  20 t-inv F
 -0.400000  0.000000  0.200000    0.00100000  20 t-inv F
  0.400000 -0.200000  0.000000    0.00100000  20 t-inv F
  0.000000  0.400000 -0.200000    0.00100000  20 t-inv F
 -0.200000  0.000000  0.400000    0.00100000  20 t-inv F
  0.200000  0.200000  0.600000    0.00100000  20 t-inv F
 -0.400000 -0.600000 -0.400000    0.00100000  20 t-inv F
 -0.200000  0.400000  0.000000    0.00100000  20 t-inv F
  0.600000  0.200000  0.200000    0.00100000  20 t-inv F
 -0.400000 -0.400000 -0.600000    0.00100000  20 t-inv F
  0.000000 -0.200000  0.400000    0.00100000  20 t-inv F
  0.200000  0.600000  0.200000    0.00100000  20 t-inv F
 -0.600000 -0.400000 -0.400000    0.00100000  20 t-inv F
  0.400000  0.000000 -0.200000    0.00100000  20 t-inv F
  0.000000 -0.300000  0.200000    0.00100000  21 t-inv F
  0.200000  0.000000 -0.300000    0.00100000  21 t-inv F
 -0.200000 -0.200000 -0.500000    0.00100000  21 t-inv F
  0.300000  0.500000  0.300000    0.00100000  21 t-inv F
  0.200000 -0.300000  0.000000    0.00100000  21 t-inv F
 -0.500000 -0.200000 -0.200000    0.00100000  21 t-inv F
  0.300000  0.300000  0.500000    0.00100000  21 t-inv F
  0.000000  0.200000 -0.300000    0.00100000  21 t-inv F
 -0.200000 -0.500000 -0.200000    0.00100000  21 t-inv F
  0.500000  0.300000  0.300000    0.00100000  21 t-inv F
 -0.300000  0.000000  0.200000    0.00100000  21 t-inv F
  0.300000 -0.200000  0.000000    0.00100000  21 t-inv F
  0.000000  0.300000 -0.200000    0.00100000  21 t-inv F
 -0.200000  0.000000  0.300000    0.00100000  21 t-inv F
  0.200000  0.200000  0.500000    0.00100000  21 t-inv F
 -0.300000 -0.500000 -0.300000    0.00100000  21 t-inv F
 -0.200000  0.300000  0.000000    0.00100000  21 t-inv F
  0.500000  0.200000  0.200000    0.00100000  21 t-inv F
 -0.300000 -0.300000 -0.500000    0.00100000  21 t-inv F
  0.000000 -0.200000  0.300000    0.00100000  21 t-inv F
  0.200000  0.500000  0.200000    0.00100000  21 t-inv F
 -0.500000 -0.300000 -0.300000    0.00100000  21 t-inv F
  0.300000  0.000000 -0.200000    0.00100000  21 t-inv F
  0.000000 -0.200000  0.200000    0.00100000  22 t-inv F
  0.200000  0.000000 -0.200000    0.00100000  22 t-inv F
 -0.200000 -0.200000 -0.400000    0.00100000  22 t-inv F
  0.200000  0.400000  0.200000    0.00100000  22 t-inv F
  0.200000 -0.200000  0.000000    0.00100000  22 t-inv F
 -0.400000 -0.200000 -0.200000    0.00100000  22 t-inv F
  0.200000  0.200000  0.400000    0.00100000  22 t-inv F
  0.000000  0.200000 -0.200000    0.00100000  22 t-inv F
 -0.200000 -0.400000 -0.200000    0.00100000  22 t-inv F
  0.400000  0.200000  0.200000    0.00100000  22 t-inv F
 -0.200000  0.000000  0.200000    0.00100000  22 t-inv F
  0.000000  0.300000  0.300000    0.00100000  23 t-inv F
  0.300000  0.000000  0.300000    0.00100000  23 t-inv F
 -0.300000 -0.300000  0.000000    0.00100000  23 t-inv F
 -0.300000  0.000000 -0.300000    0.00100000  23 t-inv F
  0.000000 -0.300000 -0.300000    0.00100000  23 t-inv F
  0.000000  0.400000  0.300000    0.00100000  24 t-inv F
  0.300000  0.000000  0.400000    0.00100000  24 t-inv F
 -0.300000 -0.300000  0.100000    0.00100000  24 t-inv F
 -0.400000 -0.100000 -0.400000    0.00100000  24 t-inv F
  0.300000  0.400000  0.000000    0.00100000  24 t-inv F
  0.100000 -0.300000 -0.300000    0.00100000  24 t-inv F
 -0.400000 -0.400000 -0.100000    0.00100000  24 t-inv F
  0.000000  0.300000  0.400000    0.00100000  24 t-inv F
 -0.300000  0.100000 -0.300000    0.00100000  24 t-inv F
 -0.100000 -0.400000 -0.400000    0.00100000  24 t-inv F
  0.400000  0.000000  0.300000    0.00100000  24 t-inv F
 -0.400000 -0.300000  0.000000    0.00100000  24 t-inv F
  0.000000 -0.400000 -0.300000    0.00100000  24 t-inv F
 -0.300000  0.000000 -0.400000    0.00100000  24 t-inv F
  0.300000  0.300000 -0.100000    0.00100000  24 t-inv F
  0.400000  0.100000  0.400000    0.00100000  24 t-inv F
 -0.300000 -0.400000  0.000000    0.00100000  24 t-inv F
 -0.100000  0.300000  0.300000    0.00100000  24 t-inv F
  0.400000  0.400000  0.100000    0.00100000  24 t-inv F
  0.000000 -0.300000 -0.400000    0.00100000  24 t-inv F
  0.300000 -0.100000  0.300000    0.00100000  24 t-inv F
  0.100000  0.400000  0.400000    0.00100000  24 t-inv F
 -0.400000  0.000000 -0.300000    0.00100000  24 t-inv F
  0.000000  0.500000  0.300000    0.00100000  25 t-inv F
  0.300000  0.000000  0.500000    0.00100000  25 t-inv F
 -0.300000 -0.300000  0.200000    0.00100000  25 t-inv F
 -0.500000 -0.200000 -0.500000    0.00100000  25 t-inv F
  0.300000  0.500000  0.000000    0.00100000  25 t-inv F
  0.200000 -0.300000 -0.300000    0.00100000  25 t-inv F
 -0.500000 -0.500000 -0.200000    0.00100000  25 t-inv F
  0.000000  0.300000  0.500000    0.00100000  25 t-inv F
 -0.300000  0.200000 -0.300000    0.00100000  25 t-inv F
 -0.200000 -0.500000 -0.500000    0.00100000  25 t-inv F
  0.500000  0.000000  0.300000    0.00100000  25 t-inv F
 -0.500000 -0.300000  0.000000    0.00100000  25 t-inv F
  0.000000 -0.500000 -0.300000    0.00100000  25 t-inv F
 -0.300000  0.000000 -0.500000    0.00100000  25 t-inv F
  0.300000  0.300000 -0.200000    0.00100000  25 t-inv F
  0.500000  0.200000  0.500000    0.00100000  25 t-inv F
 -0.300000 -0.500000  0.000000    0.00100000  25 t-inv F
 -0.200000  0.300000  0.300000    0.00100000  25 t-inv F
  0.500000  0.500000  0.200000    0.00100000  25 t-inv F
  0.000000 -0.300000 -0.500000    0.00100000  25 t-inv F
  0.300000 -0.200000  0.300000    0.00100000  25 t-inv F
  0.200000  0.500000  0.500000    0.00100000  25 t-inv F
 -0.500000  0.000000 -0.300000    0.00100000  25 t-inv F
  0.000000 -0.400000  0.300000    0.00100000  26 t-inv F
  0.300000  0.000000 -0.400000    0.00100000  26 t-inv F
 -0.300000 -0.300000 -0.700000    0.00100000  26 t-inv F
  0.400000  0.700000  0.400000    0.00100000  26 t-inv F
  0.300000 -0.400000  0.000000    0.00100000  26 t-inv F
 -0.700000 -0.300000 -0.300000    0.00100000  26 t-inv F
  0.400000  0.400000  0.700000    0.00100000  26 t-inv F
  0.000000  0.300000 -0.400000    0.00100000  26 t-inv F
 -0.300000 -0.700000 -0.300000    0.00100000  26 t-inv F
  0.700000  0.400000  0.400000    0.00100000  26 t-inv F
 -0.400000  0.000000  0.300000    0.00100000  26 t-inv F
  0.400000 -0.300000  0.000000    0.00100000  26 t-inv F
  0.000000  0.400000 -0.300000    0.00100000  26 t-inv F
 -0.300000  0.000000  0.400000    0.00100000  26 t-inv F
  0.300000  0.300000  0.700000    0.00100000  26 t-inv F
 -0.400000 -0.700000 -0.400000    0.00100000  26 t-inv F
 -0.300000  0.400000  0.000000    0.00100000  26 t-inv F
  0.700000  0.300000  0.300000    0.00100000  26 t-inv F
 -0.400000 -0.400000 -0.700000    0.00100000  26 t-inv F
  0.000000 -0.300000  0.400000    0.00100000  26 t-inv F
  0.300000  0.700000  0.300000    0.00100000  26 t-inv F
 -0.700000 -0.400000 -0.400000    0.00100000  26 t-inv F
  0.400000  0.000000 -0.300000    0.00100000  26 t-inv F
  0.000000 -0.300000  0.300000    0.00100000  27 t-inv F
  0.300000  0.000000 -0.300000    0.00100000  27 t-inv F
 -0.300000 -0.300000 -0.600000    0.00100000  27 t-inv F
  0.300000  0.600000  0.300000    0.00100000  27 t-inv F
  0.300000 -0.300000  0.000000    0.00100000  27 t-inv F
 -0.600000 -0.300000 -0.300000    0.00100000  27 t-inv F
  0.300000  0.300000  0.600000    0.00100000  27 t-inv F
  0.000000  0.300000 -0.300000    0.00100000  27 t-inv F
 -0.300000 -0.600000 -0.300000    0.00100000  27 t-inv F
  0.600000  0.300000  0.300000    0.00100000  27 t-inv F
 -0.300000  0.000000  0.300000    0.00100000  27 t-inv F
  0.000000  0.400000  0.400000    0.00100000  28 t-inv F
  0.400000  0.000000  0.400000    0.00100000  28 t-inv F
 -0.400000 -0.400000  0.000000    0.00100000  28 t-inv F
 -0.400000  0.000000 -0.400000    0.00100000  28 t-inv F
  0.000000 -0.400000 -0.400000    0.00100000  28 t-inv F
  0.000000  0.500000  0.400000    0.00100000  29 t-inv F
  0.400000  0.000000  0.500000    0.00100000  29 t-inv F
 -0.400000 -0.400000  0.100000    0.00100000  29 t-inv F
 -0.500000 -0.100000 -0.500000    0.00100000  29 t-inv F
  0.400000  0.500000  0.000000    0.00100000  29 t-inv F
  0.100000 -0.400000 -0.400000    0.00100000  29 t-inv F
 -0.500000 -0.500000 -0.100000    0.00100000  29 t-inv F
  0.000000  0.400000  0.500000    0.00100000  29 t-inv F
 -0.400000  0.100000 -0.400000    0.00100000  29 t-inv F
 -0.100000 -0.500000 -0.500000    0.00100000  29 t-inv F
  0.500000  0.000000  0.400000    0.00100000  29 t-inv F
 -0.500000 -0.400000  0.000000    0.00100000  29 t-inv F
  0.000000 -0.500000 -0.400000    0.00100000  29 t-inv F
 -0.400000  0.000000 -0.500000    0.00100000  29 t-inv F
  0.400000  0.400000 -0.100000    0.00100000  29 t-inv F
  0.500000  0.100000  0.500000    0.00100000  29 t-inv F
 -0.400000 -0.500000  0.000000    0.00100000  29 t-inv F
 -0.100000  0.400000  0.400000    0.00100000  29 t-inv F
  0.500000  0.500000  0.100000    0.00100000  29 t-inv F
  0.000000 -0.400000 -0.500000    0.00100000  29 t-inv F
  0.400000 -0.100000  0.400000    0.00100000  29 t-inv F
  0.100000  0.500000  0.500000    0.00100000  29 t-inv F
 -0.500000  0.000000 -0.400000    0.00100000  29 t-inv F
  0.000000 -0.400000  0.400000    0.00100000  30 t-inv F
  0.400000  0.000000 -0.400000    0.00100000  30 t-inv F
 -0.400000 -0.400000 -0.800000    0.00100000  30 t-inv F
  0.400000  0.800000  0.400000    0.00100000  30 t-inv F
  0.400000 -0.400000  0.000000    0.00100000  30 t-inv F
 -0.800000 -0.400000 -0.400000    0.00100000  30 t-inv F
  0.400000  0.400000  0.800000    0.00100000  30 t-inv F
  0.000000  0.400000 -0.400000    0.00100000  30 t-inv F
 -0.400000 -0.800000 -0.400000    0.00100000  30 t-inv F
  0.800000  0.400000  0.400000    0.00100000  30 t-inv F
 -0.400000  0.000000  0.400000    0.00100000  30 t-inv F
  0.000000  0.500000  0.500000    0.00100000  31 t-inv F
  0.500000  0.000000  0.500000    0.00100000  31 t-inv F
  0.100000  0.300000  0.200000    0.00100000  32 t-inv F
  0.200000  0.100000  0.300000    0.00100000  32 t-inv F
 -0.200000 -0.100000  0.100000    0.00100000  32 t-inv F
 -0.300000 -0.100000 -0.200000    0.00100000  32 t-inv F
 -0.100000  0.200000  0.100000    0.00100000  32 t-inv F
  0.100000  0.200000 -0.100000    0.00100000  32 t-inv F
  0.100000 -0.100000 -0.200000    0.00100000  32 t-inv F
 -0.200000 -0.100000 -0.300000    0.00100000  32 t-inv F
 -0.200000 -0.300000 -0.100000    0.00100000  32 t-inv F
  0.100000 -0.100000  0.200000    0.00100000  32 t-inv F
  0.100000 -0.200000 -0.100000    0.00100000  32 t-inv F
 -0.100000  0.100000  0.200000    0.00100000  32 t-inv F
 -0.200000  0.100000 -0.100000    0.00100000  32 t-inv F
 -0.300000 -0.200000 -0.100000    0.00100000  32 t-inv F
 -0.100000 -0.200000 -0.300000    0.00100000  32 t-inv F
  0.200000  0.100000 -0.100000    0.00100000  32 t-inv F
 -0.100000  0.100000 -0.200000    0.00100000  32 t-inv F
  0.200000 -0.100000  0.100000    0.00100000  32 t-inv F
 -0.100000 -0.200000  0.100000    0.00100000  32 t-inv F
 -0.100000 -0.300000 -0.200000    0.00100000  32 t-inv F
  0.300000  0.100000  0.200000    0.00100000  32 t-inv F
  0.200000  0.300000  0.100000    0.00100000  32 t-inv F
  0.100000  0.200000  0.300000    0.00100000  32 t-inv F
  0.100000  0.400000  0.200000    0.00100000  33 t-inv F
  0.200000  0.100000  0.400000    0.00100000  33 t-inv F
 -0.200000 -0.100000  0.200000    0.00100000  33 t-inv F
 -0.400000 -0.200000 -0.300000    0.00100000  33 t-inv F
 -0.100000  0.300000  0.100000    0.00100000  33 t-inv F
  0.100000  0.300000 -0.100000    0.00100000  33 t-inv F
  0.200000 -0.100000 -0.200000    0.00100000  33 t-inv F
 -0.300000 -0.200000 -0.400000    0.00100000  33 t-inv F
 -0.300000 -0.400000 -0.200000    0.00100000  33 t-inv F
  0.100000 -0.100000  0.300000    0.00100000  33 t-inv F
  0.200000 -0.200000 -0.100000    0.00100000  33 t-inv F
 -0.100000  0.100000  0.300000    0.00100000  33 t-inv F
 -0.200000  0.200000 -0.100000    0.00100000  33 t-inv F
 -0.400000 -0.300000 -0.200000    0.00100000  33 t-inv F
 -0.200000 -0.300000 -0.400000    0.00100000  33 t-inv F
  0.300000  0.100000 -0.100000    0.00100000  33 t-inv F
 -0.100000  0.200000 -0.200000    0.00100000  33 t-inv F
  0.300000 -0.100000  0.100000    0.00100000  33 t-inv F
 -0.100000 -0.200000  0.200000    0.00100000  33 t-inv F
 -0.200000 -0.400000 -0.300000    0.00100000  33 t-inv F
  0.400000  0.100000  0.200000    0.00100000  33 t-inv F
  0.200000  0.400000  0.100000    0.00100000  33 t-inv F
  0.100000  0.200000  0.400000    0.00100000  33 t-inv F
 -0.400000 -0.200000 -0.100000    0.00100000  33 t-inv F
 -0.100000 -0.400000 -0.200000    0.00100000  33 t-inv F
 -0.200000 -0.100000 -0.400000    0.00100000  33 t-inv F
  0.200000  0.100000 -0.200000    0.00100000  33 t-inv F
  0.400000  0.200000  0.300000    0.00100000  33 t-inv F
  0.100000 -0.300000 -0.100000    0.00100000  33 t-inv F
 -0.100000 -0.300000  0.100000    0.00100000  33 t-inv F
 -0.200000  0.100000  0.200000    0.00100000  33 t-inv F
  0.300000  0.200000  0.400000    0.00100000  33 t-inv F
  0.300000  0.400000  0.200000    0.00100000  33 t-inv F
 -0.100000  0.100000 -0.300000    0.00100000  33 t-inv F
 -0.200000  0.200000  0.100000    0.00100000  33 t-inv F
  0.100000 -0.100000 -0.300000    0.00100000  33 t-inv F
  0.200000 -0.200000  0.100000    0.00100000  33 t-inv F
  0.400000  0.300000  0.200000    0.00100000  33 t-inv F
  0.200000  0.300000  0.400000    0.00100000  33 t-inv F
 -0.300000 -0.100000  0.100000    0.00100000  33 t-inv F
  0.100000 -0.200000  0.200000    0.00100000  33 t-inv F
 -0.300000  0.100000 -0.100000    0.00100000  33 t-inv F
  0.100000  0.200000 -0.200000    0.00100000  33 t-inv F
  0.200000  0.400000  0.300000    0.00100000  33 t-inv F
 -0.400000 -0.100000 -0.200000    0.00100000  33 t-inv F
 -0.200000 -0.400000 -0.100000    0.00100000  33 t-inv F
 -0.100000 -0.200000 -0.400000    0.00100000  33 t-inv F
  0.100000  0.500000  0.200000    0.00100000  34 t-inv F
  0.200000  0.100000  0.500000    0.00100000  34 t-inv F
 -0.200000 -0.100000  0.300000    0.00100000  34 t-inv F
 -0.500000 -0.300000 -0.400000    0.00100000  34 t-inv F
 -0.100000  0.400000  0.100000    0.00100000  34 t-inv F
  0.100000  0.400000 -0.100000    0.00100000  34 t-inv F
  0.300000 -0.100000 -0.200000    0.00100000  34 t-inv F
 -0.400000 -0.300000 -0.500000    0.00100000  34 t-inv F
 -0.400000 -0.500000 -0.300000    0.00100000  34 t-inv F
  0.100000 -0.100000  0.400000    0.00100000  34 t-inv F
  0.300000 -0.200000 -0.100000    0.00100000  34 t-inv F
 -0.100000  0.100000  0.400000    0.00100000  34 t-inv F
 -0.200000  0.300000 -0.100000    0.00100000  34 t-inv F
 -0.500000 -0.400000 -0.300000    0.00100000  34 t-inv F
 -0.300000 -0.400000 -0.500000    0.00100000  34 t-inv F
  0.400000  0.100000 -0.100000    0.00100000  34 t-inv F
 -0.100000  0.300000 -0.200000    0.00100000  34 t-inv F
  0.400000 -0.100000  0.100000    0.00100000  34 t-inv F
 -0.100000 -0.200000  0.300000    0.00100000  34 t-inv F
 -0.300000 -0.500000 -0.400000    0.00100000  34 t-inv F
  0.500000  0.100000  0.200000    0.00100000  34 t-inv F
  0.200000  0.500000  0.100000    0.00100000  34 t-inv F
  0.100000  0.200000  0.500000    0.00100000  34 t-inv F
 -0.500000 -0.200000 -0.100000    0.00100000  34 t-inv F
 -0.100000 -0.500000 -0.200000    0.00100000  34 t-inv F
 -0.200000 -0.100000 -0.500000    0.00100000  34 t-inv F
  0.200000  0.100000 -0.300000    0.00100000  34 t-inv F
  0.500000  0.300000  0.400000    0.00100000  34 t-inv F
  0.100000 -0.400000 -0.100000    0.00100000  34 t-inv F
 -0.100000 -0.400000  0.100000    0.00100000  34 t-inv F
 -0.300000  0.100000  0.200000    0.00100000  34 t-inv F
  0.400000  0.300000  0.500000    0.00100000  34 t-inv F
  0.400000  0.500000  0.300000    0.00100000  34 t-inv F
 -0.100000  0.100000 -0.400000    0.00100000  34 t-inv F
 -0.300000  0.200000  0.100000    0.00100000  34 t-inv F
  0.100000 -0.100000 -0.400000    0.00100000  34 t-inv F
  0.200000 -0.300000  0.100000    0.00100000  34 t-inv F
  0.500000  0.400000  0.300000    0.00100000  34 t-inv F
  0.300000  0.400000  0.500000    0.00100000  34 t-inv F
 -0.400000 -0.100000  0.100000    0.00100000  34 t-inv F
  0.100000 -0.300000  0.200000    0.00100000  34 t-inv F
 -0.400000  0.100000 -0.100000    0.00100000  34 t-inv F
  0.100000  0.200000 -0.300000    0.00100000  34 t-inv F
  0.300000  0.500000  0.400000    0.00100000  34 t-inv F
 -0.500000 -0.100000 -0.200000    0.00100000  34 t-inv F
 -0.200000 -0.500000 -0.100000    0.00100000  34 t-inv F
 -0.100000 -0.200000 -0.500000    0.00100000  34 t-inv F
  0.100000 -0.400000  0.200000    0.00100000  35 t-inv F
  0.200000  0.100000 -0.400000    0.00100000  35 t-inv F
 -0.200000 -0.100000 -0.600000    0.00100000  35 t-inv F
  0.400000  0.600000  0.500000    0.00100000  35 t-inv F
 -0.100000 -0.500000  0.100000    0.00100000  35 t-inv F
  0.100000 -0.500000 -0.100000    0.00100000  35 t-inv F
 -0.600000 -0.100000 -0.200000    0.00100000  35 t-inv F
  0.500000  0.600000  0.400000    0.00100000  35 t-inv F
  0.500000  0.400000  0.600000    0.00100000  35 t-inv F
  0.100000 -0.100000 -0.500000    0.00100000  35 t-inv F
 -0.600000 -0.200000 -0.100000    0.00100000  35 t-inv F
 -0.100000  0.100000 -0.500000    0.00100000  35 t-inv F
 -0.200000 -0.600000 -0.100000    0.00100000  35 t-inv F
  0.400000  0.500000  0.600000    0.00100000  35 t-inv F
  0.600000  0.500000  0.400000    0.00100000  35 t-inv F
 -0.500000  0.100000 -0.100000    0.00100000  35 t-inv F
 -0.100000 -0.600000 -0.200000    0.00100000  35 t-inv F
 -0.500000 -0.100000  0.100000    0.00100000  35 t-inv F
 -0.100000 -0.200000 -0.600000    0.00100000  35 t-inv F
  0.600000  0.400000  0.500000    0.00100000  35 t-inv F
 -0.400000  0.100000  0.200000    0.00100000  35 t-inv F
  0.200000 -0.400000  0.100000    0.00100000  35 t-inv F
  0.100000  0.200000 -0.400000    0.00100000  35 t-inv F
  0.100000  0.400000  0.300000    0.00100000  36 t-inv F
  0.300000  0.100000  0.400000    0.00100000  36 t-inv F
 -0.300000 -0.200000  0.100000    0.00100000  36 t-inv F
 -0.400000 -0.100000 -0.300000    0.00100000  36 t-inv F
 -0.100000  0.300000  0.200000    0.00100000  36 t-inv F
  0.200000  0.300000 -0.100000    0.00100000  36 t-inv F
  0.100000 -0.200000 -0.300000    0.00100000  36 t-inv F
 -0.300000 -0.100000 -0.400000    0.00100000  36 t-inv F
 -0.300000 -0.400000 -0.100000    0.00100000  36 t-inv F
  0.200000 -0.100000  0.300000    0.00100000  36 t-inv F
  0.100000 -0.300000 -0.200000    0.00100000  36 t-inv F
 -0.100000  0.200000  0.300000    0.00100000  36 t-inv F
 -0.300000  0.100000 -0.200000    0.00100000  36 t-inv F
 -0.400000 -0.300000 -0.100000    0.00100000  36 t-inv F
 -0.100000 -0.300000 -0.400000    0.00100000  36 t-inv F
  0.300000  0.200000 -0.100000    0.00100000  36 t-inv F
 -0.200000  0.100000 -0.300000    0.00100000  36 t-inv F
  0.300000 -0.100000  0.200000    0.00100000  36 t-inv F
 -0.200000 -0.300000  0.100000    0.00100000  36 t-inv F
 -0.100000 -0.400000 -0.300000    0.00100000  36 t-inv F
  0.400000  0.100000  0.300000    0.00100000  36 t-inv F
  0.300000  0.400000  0.100000    0.00100000  36 t-inv F
  0.100000  0.300000  0.400000    0.00100000  36 t-inv F
  0.100000  0.500000  0.300000    0.00100000  37 t-inv F
  0.300000  0.100000  0.500000    0.00100000  37 t-inv F
 -0.300000 -0.200000  0.200000    0.00100000  37 t-inv F
 -0.500000 -0.200000 -0.400000    0.00100000  37 t-inv F
 -0.100000  0.400000  0.200000    0.00100000  37 t-inv F
  0.200000  0.400000 -0.100000    0.00100000  37 t-inv F
  0.200000 -0.200000 -0.300000    0.00100000  37 t-inv F
 -0.400000 -0.200000 -0.500000    0.00100000  37 t-inv F
 -0.400000 -0.500000 -0.200000    0.00100000  37 t-inv F
  0.200000 -0.100000  0.400000    0.00100000  37 t-inv F
  0.200000 -0.300000 -0.200000    0.00100000  37 t-inv F
 -0.100000  0.200000  0.400000    0.00100000  37 t-inv F
 -0.300000  0.200000 -0.200000    0.00100000  37 t-inv F
 -0.500000 -0.400000 -0.200000    0.00100000  37 t-inv F
 -0.200000 -0.400000 -0.500000    0.00100000  37 t-inv F
  0.400000  0.200000 -0.100000    0.00100000  37 t-inv F
 -0.200000  0.200000 -0.300000    0.00100000  37 t-inv F
  0.400000 -0.100000  0.200000    0.00100000  37 t-inv F
 -0.200000 -0.300000  0.200000    0.00100000  37 t-inv F
 -0.200000 -0.500000 -0.400000    0.00100000  37 t-inv F
  0.500000  0.100000  0.300000    0.00100000  37 t-inv F
  0.300000  0.500000  0.100000    0.00100000  37 t-inv F
  0.100000  0.300000  0.500000    0.00100000  37 t-inv F
 -0.500000 -0.300000 -0.100000    0.00100000  37 t-inv F
 -0.100000 -0.500000 -0.300000    0.00100000  37 t-inv F
 -0.300000 -0.100000 -0.500000    0.00100000  37 t-inv F
  0.300000  0.200000 -0.200000    0.00100000  37 t-inv F
  0.500000  0.200000  0.400000    0.00100000  37 t-inv F
  0.100000 -0.400000 -0.200000    0.00100000  37 t-inv F
 -0.200000 -0.400000  0.100000    0.00100000  37 t-inv F
 -0.200000  0.200000  0.300000    0.00100000  37 t-inv F
  0.400000  0.200000  0.500000    0.00100000  37 t-inv F
  0.400000  0.500000  0.200000    0.00100000  37 t-inv F
 -0.200000  0.100000 -0.400000    0.00100000  37 t-inv F
 -0.200000  0.300000  0.200000    0.00100000  37 t-inv F
  0.100000 -0.200000 -0.400000    0.00100000  37 t-inv F
  0.300000 -0.200000  0.200000    0.00100000  37 t-inv F
  0.500000  0.400000  0.200000    0.00100000  37 t-inv F
  0.200000  0.400000  0.500000    0.00100000  37 t-inv F
 -0.400000 -0.200000  0.100000    0.00100000  37 t-inv F
  0.200000 -0.200000  0.300000    0.00100000  37 t-inv F
 -0.400000  0.100000 -0.200000    0.00100000  37 t-inv F
  0.200000  0.300000 -0.200000    0.00100000  37 t-inv F
  0.200000  0.500000  0.400000    0.00100000  37 t-inv F
 -0.500000 -0.100000 -0.300000    0.00100000  37 t-inv F
 -0.300000 -0.500000 -0.100000    0.00100000  37 t-inv F
 -0.100000 -0.300000 -0.500000    0.00100000  37 t-inv F
  0.100000 -0.400000  0.300000    0.00100000  38 t-inv F
  0.300000  0.100000 -0.400000    0.00100000  38 t-inv F
 -0.300000 -0.200000 -0.700000    0.00100000  38 t-inv F
  0.400000  0.700000  0.500000    0.00100000  38 t-inv F
 -0.100000 -0.500000  0.200000    0.00100000  38 t-inv F
  0.200000 -0.500000 -0.100000    0.00100000  38 t-inv F
 -0.700000 -0.200000 -0.300000    0.00100000  38 t-inv F
  0.500000  0.700000  0.400000    0.00100000  38 t-inv F
  0.500000  0.400000  0.700000    0.00100000  38 t-inv F
  0.200000 -0.100000 -0.500000    0.00100000  38 t-inv F
 -0.700000 -0.300000 -0.200000    0.00100000  38 t-inv F
 -0.100000  0.200000 -0.500000    0.00100000  38 t-inv F
 -0.300000 -0.700000 -0.200000    0.00100000  38 t-inv F
  0.400000  0.500000  0.700000    0.00100000  38 t-inv F
  0.700000  0.500000  0.400000    0.00100000  38 t-inv F
 -0.500000  0.200000 -0.100000    0.00100000  38 t-inv F
 -0.200000 -0.700000 -0.300000    0.00100000  38 t-inv F
 -0.500000 -0.100000  0.200000    0.00100000  38 t-inv F
 -0.200000 -0.300000 -0.700000    0.00100000  38 t-inv F
  0.700000  0.400000  0.500000    0.00100000  38 t-inv F
 -0.400000  0.100000  0.300000    0.00100000  38 t-inv F
  0.300000 -0.400000  0.100000    0.00100000  38 t-inv F
  0.100000  0.300000 -0.400000    0.00100000  38 t-inv F
  0.400000 -0.300000 -0.100000    0.00100000  38 t-inv F
 -0.100000  0.400000 -0.300000    0.00100000  38 t-inv F
 -0.300000 -0.100000  0.400000    0.00100000  38 t-inv F
  0.300000  0.200000  0.700000    0.00100000  38 t-inv F
 -0.400000 -0.700000 -0.500000    0.00100000  38 t-inv F
  0.100000  0.500000 -0.200000    0.00100000  38 t-inv F
 -0.200000  0.500000  0.100000    0.00100000  38 t-inv F
  0.700000  0.200000  0.300000    0.00100000  38 t-inv F
 -0.500000 -0.700000 -0.400000    0.00100000  38 t-inv F
 -0.500000 -0.400000 -0.700000    0.00100000  38 t-inv F
 -0.200000  0.100000  0.500000    0.00100000  38 t-inv F
  0.700000  0.300000  0.200000    0.00100000  38 t-inv F
  0.100000 -0.200000  0.500000    0.00100000  38 t-inv F
  0.300000  0.700000  0.200000    0.00100000  38 t-inv F
 -0.400000 -0.500000 -0.700000    0.00100000  38 t-inv F
 -0.700000 -0.500000 -0.400000    0.00100000  38 t-inv F
  0.500000 -0.200000  0.100000    0.00100000  38 t-inv F
  0.200000  0.700000  0.300000    0.00100000  38 t-inv F
  0.500000  0.100000 -0.200000    0.00100000  38 t-inv F
  0.200000  0.300000  0.700000    0.00100000  38 t-inv F
 -0.700000 -0.400000 -0.500000    0.00100000  38 t-inv F
  0.400000 -0.100000 -0.300000    0.00100000  38 t-inv F
 -0.300000  0.400000 -0.100000    0.00100000  38 t-inv F
 -0.100000 -0.300000  0.400000    0.00100000  38 t-inv F
  0.100000 -0.300000  0.300000    0.00100000  39 t-inv F
  0.300000  0.100000 -0.300000    0.00100000  39 t-inv F
 -0.300000 -0.200000 -0.600000    0.00100000  39 t-inv F
  0.300000  0.600000  0.400000    0.00100000  39 t-inv F
 -0.100000 -0.400000  0.200000    0.00100000  39 t-inv F
  0.200000 -0.400000 -0.100000    0.00100000  39 t-inv F
 -0.600000 -0.200000 -0.300000    0.00100000  39 t-inv F
  0.400000  0.600000  0.300000    0.00100000  39 t-inv F
  0.400000  0.300000  0.600000    0.00100000  39 t-inv F
  0.200000 -0.100000 -0.400000    0.00100000  39 t-inv F
 -0.600000 -0.300000 -0.200000    0.00100000  39 t-inv F
 -0.100000  0.200000 -0.400000    0.00100000  39 t-inv F
 -0.300000 -0.600000 -0.200000    0.00100000  39 t-inv F
  0.300000  0.400000  0.600000    0.00100000  39 t-inv F
  0.600000  0.400000  0.300000    0.00100000  39 t-inv F
 -0.400000  0.200000 -0.100000    0.00100000  39 t-inv F
 -0.200000 -0.600000 -0.300000    0.00100000  39 t-inv F
 -0.400000 -0.100000  0.200000    0.00100000  39 t-inv F
 -0.200000 -0.300000 -0.600000    0.00100000  39 t-inv F
  0.600000  0.300000  0.400000    0.00100000  39 t-inv F
 -0.300000  0.100000  0.300000    0.00100000  39 t-inv F
  0.300000 -0.300000  0.100000    0.00100000  39 t-inv F
  0.100000  0.300000 -0.300000    0.00100000  39 t-inv F
  0.300000 -0.300000 -0.100000    0.00100000  39 t-inv F
 -0.100000  0.300000 -0.300000    0.00100000  39 t-inv F
 -0.300000 -0.100000  0.300000    0.00100000  39 t-inv F
  0.300000  0.200000  0.600000    0.00100000  39 t-inv F
 -0.300000 -0.600000 -0.400000    0.00100000  39 t-inv F
  0.100000  0.400000 -0.200000    0.00100000  39 t-inv F
 -0.200000  0.400000  0.100000    0.00100000  39 t-inv F
  0.600000  0.200000  0.300000    0.00100000  39 t-inv F
 -0.400000 -0.600000 -0.300000    0.00100000  39 t-inv F
 -0.400000 -0.300000 -0.600000    0.00100000  39 t-inv F
 -0.200000  0.100000  0.400000    0.00100000  39 t-inv F
  0.600000  0.300000  0.200000    0.00100000  39 t-inv F
  0.100000 -0.200000  0.400000    0.00100000  39 t-inv F
  0.300000  0.600000  0.200000    0.00100000  39 t-inv F
 -0.300000 -0.400000 -0.600000    0.00100000  39 t-inv F
 -0.600000 -0.400000 -0.300000    0.00100000  39 t-inv F
  0.400000 -0.200000  0.100000    0.00100000  39 t-inv F
  0.200000  0.600000  0.300000    0.00100000  39 t-inv F
  0.400000  0.100000 -0.200000    0.00100000  39 t-inv F
  0.200000  0.300000  0.600000    0.00100000  39 t-inv F
 -0.600000 -0.300000 -0.400000    0.00100000  39 t-inv F
  0.300000 -0.100000 -0.300000    0.00100000  39 t-inv F
 -0.300000  0.300000 -0.100000    0.00100000  39 t-inv F
 -0.100000 -0.300000  0.300000    0.00100000  39 t-inv F
  0.100000 -0.200000  0.300000    0.00100000  40 t-inv F
  0.300000  0.100000 -0.200000    0.00100000  40 t-inv F
 -0.300000 -0.200000 -0.500000    0.00100000  40 t-inv F
  0.200000  0.500000  0.300000    0.00100000  40 t-inv F
 -0.100000 -0.300000  0.200000    0.00100000  40 t-inv F
  0.200000 -0.300000 -0.100000    0.00100000  40 t-inv F
 -0.500000 -0.200000 -0.300000    0.00100000  40 t-inv F
  0.300000  0.500000  0.200000    0.00100000  40 t-inv F
  0.300000  0.200000  0.500000    0.00100000  40 t-inv F
  0.200000 -0.100000 -0.300000    0.00100000  40 t-inv F
 -0.500000 -0.300000 -0.200000    0.00100000  40 t-inv F
 -0.100000  0.200000 -0.300000    0.00100000  40 t-inv F
 -0.300000 -0.500000 -0.200000    0.00100000  40 t-inv F
  0.200000  0.300000  0.500000    0.00100000  40 t-inv F
  0.500000  0.300000  0.200000    0.00100000  40 t-inv F
 -0.300000  0.200000 -0.100000    0.00100000  40 t-inv F
 -0.200000 -0.500000 -0.300000    0.00100000  40 t-inv F
 -0.300000 -0.100000  0.200000    0.00100000  40 t-inv F
 -0.200000 -0.300000 -0.500000    0.00100000  40 t-inv F
  0.500000  0.200000  0.300000    0.00100000  40 t-inv F
 -0.200000  0.100000  0.300000    0.00100000  40 t-inv F
  0.300000 -0.200000  0.100000    0.00100000  40 t-inv F
  0.100000  0.300000 -0.200000    0.00100000  40 t-inv F
  0.100000  0.500000  0.400000    0.00100000  41 t-inv F
  0.400000  0.100000  0.500000    0.00100000  41 t-inv F
 -0.400000 -0.300000  0.100000    0.00100000  41 t-inv F
 -0.500000 -0.100000 -0.400000    0.00100000  41 t-inv F
 -0.100000  0.400000  0.300000    0.00100000  41 t-inv F
  0.300000  0.400000 -0.100000    0.00100000  41 t-inv F
  0.100000 -0.300000 -0.400000    0.00100000  41 t-inv F
 -0.400000 -0.100000 -0.500000    0.00100000  41 t-inv F
 -0.400000 -0.500000 -0.100000    0.00100000  41 t-inv F
  0.300000 -0.100000  0.400000    0.00100000  41 t-inv F
  0.100000 -0.400000 -0.300000    0.00100000  41 t-inv F
 -0.100000  0.300000  0.400000    0.00100000  41 t-inv F
 -0.400000  0.100000 -0.300000    0.00100000  41 t-inv F
 -0.500000 -0.400000 -0.100000    0.00100000  41 t-inv F
 -0.100000 -0.400000 -0.500000    0.00100000  41 t-inv F
  0.400000  0.300000 -0.100000    0.00100000  41 t-inv F
 -0.300000  0.100000 -0.400000    0.00100000  41 t-inv F
  0.400000 -0.100000  0.300000    0.00100000  41 t-inv F
 -0.300000 -0.400000  0.100000    0.00100000  41 t-inv F
 -0.100000 -0.500000 -0.400000    0.00100000  41 t-inv F
  0.500000  0.100000  0.400000    0.00100000  41 t-inv F
  0.400000  0.500000  0.100000    0.00100000  41 t-inv F
  0.100000  0.400000  0.500000    0.00100000  41 t-inv F
  0.100000 -0.400000  0.400000    0.00100000  42 t-inv F
  0.400000  0.100000 -0.400000    0.00100000  42 t-inv F
 -0.400000 -0.300000 -0.800000    0.00100000  42 t-inv F
  0.400000  0.800000  0.500000    0.00100000  42 t-inv F
 -0.100000 -0.500000  0.300000    0.00100000  42 t-inv F
  0.300000 -0.500000 -0.100000    0.00100000  42 t-inv F
 -0.800000 -0.300000 -0.400000    0.00100000  42 t-inv F
  0.500000  0.800000  0.400000    0.00100000  42 t-inv F
  0.500000  0.400000  0.800000    0.00100000  42 t-inv F
  0.300000 -0.100000 -0.500000    0.00100000  42 t-inv F
 -0.800000 -0.400000 -0.300000    0.00100000  42 t-inv F
 -0.100000  0.300000 -0.500000    0.00100000  42 t-inv F
 -0.400000 -0.800000 -0.300000    0.00100000  42 t-inv F
  0.400000  0.500000  0.800000    0.00100000  42 t-inv F
  0.800000  0.500000  0.400000    0.00100000  42 t-inv F
 -0.500000  0.300000 -0.100000    0.00100000  42 t-inv F
 -0.300000 -0.800000 -0.400000    0.00100000  42 t-inv F
 -0.500000 -0.100000  0.300000    0.00100000  42 t-inv F
 -0.300000 -0.400000 -0.800000    0.00100000  42 t-inv F
  0.800000  0.400000  0.500000    0.00100000  42 t-inv F
 -0.400000  0.100000  0.400000    0.00100000  42 t-inv F
  0.400000 -0.400000  0.100000    0.00100000  42 t-inv F
  0.100000  0.400000 -0.400000    0.00100000  42 t-inv F
  0.400000 -0.400000 -0.100000    0.00100000  42 t-inv F
 -0.100000  0.400000 -0.400000    0.00100000  42 t-inv F
 -0.400000 -0.100000  0.400000    0.00100000  42 t-inv F
  0.400000  0.300000  0.800000    0.00100000  42 t-inv F
 -0.400000 -0.800000 -0.500000    0.00100000  42 t-inv F
  0.100000  0.500000 -0.300000    0.00100000  42 t-inv F
 -0.300000  0.500000  0.100000    0.00100000  42 t-inv F
  0.800000  0.300000  0.400000    0.00100000  42 t-inv F
 -0.500000 -0.800000 -0.400000    0.00100000  42 t-inv F
 -0.500000 -0.400000 -0.800000    0.00100000  42 t-inv F
 -0.300000  0.100000  0.500000    0.00100000  42 t-inv F
  0.800000  0.400000  0.300000    0.00100000  42 t-inv F
  0.100000 -0.300000  0.500000    0.00100000  42 t-inv F
  0.400000  0.800000  0.300000    0.00100000  42 t-inv F
[...]
     11      -6.5327      2.00000
     12      -4.0244      2.00000
     13       0.1631      2.00000
     14       1.6255      2.00000
     15       7.4998      0.00000
     16       8.3609      0.00000
     17      11.1731      0.00000
     18      11.6042      0.00000

 k-point   126 :       0.5000    0.3393    0.6607
  band No.  band energies     occupation 
      1     -23.7327      2.00000
      2     -23.7233      2.00000
      3     -23.6356      2.00000
      4     -23.5904      2.00000
      5     -23.5720      2.00000
      6     -23.5593      2.00000
      7     -23.5306      2.00000
      8     -23.5079      2.00000
      9     -23.4202      2.00000
     10     -23.4112      2.00000
     11      -6.3484      2.00000
     12      -4.1467      2.00000
     13      -0.0015      2.00000
     14       1.3715      2.00000
     15       7.7880      0.00000
     16       8.4634      0.00000
     17      11.1670      0.00000
     18      11.2068      0.00000

 k-point   127 :       0.5000    0.3214    0.6786
  band No.  band energies     occupation 
      1     -23.7334      2.00000
      2     -23.7252      2.00000
      3     -23.6303      2.00000
      4     -23.5856      2.00000
      5     -23.5683      2.00000
      6     -23.5638      2.00000
      7     -23.5361      2.00000
      8     -23.5116      2.00000
      9     -23.4181      2.00000
     10     -23.4103      2.00000
     11      -6.1462      2.00000
     12      -4.3074      2.00000
     13      -0.0883      2.00000
     14       1.1152      2.00000
     15       8.0759      0.00000
     16       8.6071      0.00000
     17      10.8130      0.00000
     18      10.8924      0.00000

 k-point   128 :       0.5000    0.3036    0.6964
  band No.  band energies     occupation 
      1     -23.7335      2.00000
      2     -23.7270      2.00000
      3     -23.6246      2.00000
      4     -23.5834      2.00000
      5     -23.5742      2.00000
      6     -23.5561      2.00000
      7     -23.5415      2.00000
      8     -23.5160      2.00000
      9     -23.4162      2.00000
     10     -23.4099      2.00000
     11      -5.9280      2.00000
     12      -4.5023      2.00000
     13      -0.1011      2.00000
     14       0.8642      2.00000
     15       8.3692      0.00000
     16       8.7885      0.00000
     17      10.4285      0.00000
     18      10.5535      0.00000

 k-point   129 :       0.5000    0.2857    0.7143
  band No.  band energies     occupation 
      1     -23.7333      2.00000
      2     -23.7287      2.00000
      3     -23.6184      2.00000
      4     -23.5890      2.00000
      5     -23.5716      2.00000
      6     -23.5514      2.00000
      7     -23.5443      2.00000
      8     -23.5209      2.00000
      9     -23.4144      2.00000
     10     -23.4101      2.00000
     11      -5.6965      2.00000
     12      -4.7235      2.00000
     13      -0.0479      2.00000
     14       0.6256      2.00000
     15       8.6708      0.00000
     16       9.0024      0.00000
     17      10.0596      0.00000
     18      10.2116      0.00000

 k-point   130 :       0.5000    0.2679    0.7321
  band No.  band energies     occupation 
      1     -23.7326      2.00000
      2     -23.7303      2.00000
      3     -23.6117      2.00000
      4     -23.5968      2.00000
      5     -23.5663      2.00000
      6     -23.5551      2.00000
      7     -23.5391      2.00000
      8     -23.5265      2.00000
      9     -23.4129      2.00000
     10     -23.4106      2.00000
     11      -5.4550      2.00000
     12      -4.9618      2.00000
     13       0.0612      2.00000
     14       0.4069      2.00000
     15       8.9798      0.00000
     16       9.2320      0.00000
     17       9.7219      0.00000
     18       9.8887      0.00000

 k-point   131 :       0.5000    0.2500    0.7500
  band No.  band energies     occupation 
      1     -23.7316      2.00000
      2     -23.7316      2.00000
      3     -23.6045      2.00000
      4     -23.6045      2.00000
      5     -23.5607      2.00000
      6     -23.5607      2.00000
      7     -23.5326      2.00000
      8     -23.5326      2.00000
      9     -23.4116      2.00000
     10     -23.4116      2.00000
     11      -5.2081      2.00000
     12      -5.2081      2.00000
     13       0.2159      2.00000
     14       0.2160      2.00000
     15       9.2680      0.00000
     16       9.2680      0.00000
     17       9.6225      0.00000
     18       9.6225      0.00000

 k-point   132 :       0.5000    0.2500    0.7500
  band No.  band energies     occupation 
      1     -23.7316      2.00000
      2     -23.7316      2.00000
      3     -23.6045      2.00000
      4     -23.6045      2.00000
      5     -23.5607      2.00000
      6     -23.5607      2.00000
      7     -23.5326      2.00000
      8     -23.5326      2.00000
      9     -23.4116      2.00000
     10     -23.4116      2.00000
     11      -5.2081      2.00000
     12      -5.2081      2.00000
     13       0.2159      2.00000
     14       0.2160      2.00000
     15       9.2680      0.00000
     16       9.2680      0.00000
     17       9.6225      0.00000
     18       9.6225      0.00000

 k-point   133 :       0.5000    0.2222    0.7222
  band No.  band energies     occupation 
      1     -23.7313      2.00000
      2     -23.7313      2.00000
      3     -23.6060      2.00000
      4     -23.6060      2.00000
      5     -23.5601      2.00000
      6     -23.5601      2.00000
      7     -23.5317      2.00000
      8     -23.5317      2.00000
      9     -23.4119      2.00000
     10     -23.4119      2.00000
     11      -5.2113      2.00000
     12      -5.2112      2.00000
     13       0.2366      2.00000
     14       0.2366      2.00000
     15       8.7613      0.00000
     16       8.7613      0.00000
     17      10.1560      0.00000
     18      10.1560      0.00000

 k-point   134 :       0.5000    0.1944    0.6944
  band No.  band energies     occupation 
      1     -23.7304      2.00000
      2     -23.7304      2.00000
      3     -23.6100      2.00000
      4     -23.6100      2.00000
      5     -23.5587      2.00000
      6     -23.5587      2.00000
      7     -23.5292      2.00000
      8     -23.5292      2.00000
      9     -23.4127      2.00000
     10     -23.4127      2.00000
     11      -5.2203      2.00000
     12      -5.2203      2.00000
     13       0.2972      2.00000
     14       0.2973      2.00000
     15       8.1446      0.00000
     16       8.1446      0.00000
     17      10.8528      0.00000
     18      10.8528      0.00000

 k-point   135 :       0.5000    0.1667    0.6667
  band No.  band energies     occupation 
      1     -23.7291      2.00000
      2     -23.7291      2.00000
      3     -23.6155      2.00000
      4     -23.6155      2.00000
      5     -23.5572      2.00000
      6     -23.5572      2.00000
      7     -23.5251      2.00000
      8     -23.5251      2.00000
      9     -23.4140      2.00000
     10     -23.4140      2.00000
     11      -5.2341      2.00000
     12      -5.2341      2.00000
     13       0.3934      2.00000
     14       0.3934      2.00000
     15       7.5607      0.00000
     16       7.5607      0.00000
     17      11.5690      0.00000
     18      11.5690      0.00000

 k-point   136 :       0.5000    0.1389    0.6389
  band No.  band energies     occupation 
      1     -23.7273      2.00000
      2     -23.7273      2.00000
      3     -23.6216      2.00000
      4     -23.6216      2.00000
      5     -23.5560      2.00000
      6     -23.5560      2.00000
      7     -23.5203      2.00000
      8     -23.5203      2.00000
      9     -23.4157      2.00000
     10     -23.4157      2.00000
     11      -5.2507      2.00000
     12      -5.2507      2.00000
     13       0.5174      2.00000
     14       0.5174      2.00000
     15       7.0237      0.00000
     16       7.0237      0.00000
     17      12.2876      0.00000
     18      12.2878      0.00000

 k-point   137 :       0.5000    0.1111    0.6111
  band No.  band energies     occupation 
      1     -23.7253      2.00000
      2     -23.7253      2.00000
      3     -23.6276      2.00000
      4     -23.6276      2.00000
      5     -23.5552      2.00000
      6     -23.5552      2.00000
      7     -23.5151      2.00000
      8     -23.5151      2.00000
      9     -23.4176      2.00000
     10     -23.4176      2.00000
     11      -5.2681      2.00000
     12      -5.2681      2.00000
     13       0.6583      2.00000
     14       0.6583      2.00000
     15       6.5459      0.00000
     16       6.5459      0.00000
     17      12.9888      0.00000
     18      12.9889      0.00000

 k-point   138 :       0.5000    0.0833    0.5833
  band No.  band energies     occupation 
      1     -23.7233      2.00000
      2     -23.7233      2.00000
      3     -23.6331      2.00000
      4     -23.6331      2.00000
      5     -23.5547      2.00000
      6     -23.5547      2.00000
      7     -23.5104      2.00000
      8     -23.5104      2.00000
      9     -23.4195      2.00000
     10     -23.4195      2.00000
     11      -5.2842      2.00000
     12      -5.2842      2.00000
     13       0.8010      2.00000
     14       0.8010      2.00000
     15       6.1422      0.00000
     16       6.1422      0.00000
     17      13.6390      0.00000
     18      13.6439      0.00000

 k-point   139 :       0.5000    0.0556    0.5556
  band No.  band energies     occupation 
      1     -23.7216      2.00000
      2     -23.7216      2.00000
      3     -23.6373      2.00000
      4     -23.6373      2.00000
      5     -23.5544      2.00000
      6     -23.5544      2.00000
      7     -23.5064      2.00000
      8     -23.5064      2.00000
      9     -23.4212      2.00000
     10     -23.4212      2.00000
     11      -5.2971      2.00000
     12      -5.2971      2.00000
     13       0.9265      2.00000
     14       0.9265      2.00000
     15       5.8309      0.00000
     16       5.8309      0.00000
     17      14.1794      0.00000
     18      14.1900      0.00000

 k-point   140 :       0.5000    0.0278    0.5278
  band No.  band energies     occupation 
      1     -23.7203      2.00000
      2     -23.7203      2.00000
      3     -23.6401      2.00000
      4     -23.6401      2.00000
      5     -23.5542      2.00000
      6     -23.5542      2.00000
      7     -23.5039      2.00000
      8     -23.5039      2.00000
      9     -23.4223      2.00000
     10     -23.4223      2.00000
     11      -5.3055      2.00000
     12      -5.3055      2.00000
     13       1.0139      2.00000
     14       1.0139      2.00000
     15       5.6323      0.00000
     16       5.6323      0.00000
     17      14.5349      0.00000
     18      14.5410      0.00000

 k-point   141 :       0.5000    0.0000    0.5000
  band No.  band energies     occupation 
      1     -23.7199      2.00000
      2     -23.7199      2.00000
      3     -23.6411      2.00000
      4     -23.6411      2.00000
      5     -23.5541      2.00000
      6     -23.5541      2.00000
      7     -23.5030      2.00000
      8     -23.5030      2.00000
      9     -23.4227      2.00000
     10     -23.4227      2.00000
     11      -5.3083      2.00000
     12      -5.3083      2.00000
     13       1.0454      2.00000
     14       1.0454      2.00000
     15       5.5638      0.00000
     16       5.5638      0.00000
     17      14.6572      0.00000
     18      14.9082      0.00000


--------------------------------------------------------------------------------------------------------


 soft charge-density along one line, spin component           1
         0         1         2         3         4         5         6         7         8         9
 total charge-density along one line

 pseudopotential strength for first ion, spin component:           1
-19.974   0.000  -0.000   0.000  -0.000   3.191  -0.000   0.000
  0.000 -19.974   0.000   0.000  -0.000  -0.000   3.191  -0.000
 -0.000   0.000 -19.974   0.000  -0.000   0.000  -0.000   3.191
  0.000   0.000   0.000 -19.974   0.000  -0.000  -0.000  -0.000
 -0.000  -0.000  -0.000   0.000 -19.974   0.000   0.000   0.000
  3.191  -0.000   0.000  -0.000   0.000   2.429   0.000   0.000
 -0.000   3.191  -0.000  -0.000   0.000   0.000   2.429  -0.000
  0.000  -0.000   3.191  -0.000   0.000   0.000  -0.000   2.429
 -0.000  -0.000  -0.000   3.191  -0.000   0.000   0.000  -0.000
  0.000   0.000   0.000  -0.000   3.191  -0.000   0.000   0.000
  0.000   0.000  -0.000   0.000   0.000  -0.000  -0.000   0.000
  0.000   0.000  -0.000   0.000   0.000  -0.000  -0.000   0.000
  0.000   0.000   0.000   0.004   0.000  -0.000  -0.000  -0.000
  0.004   0.000  -0.000   0.000  -0.000  -0.003  -0.000   0.000
  0.000   0.004   0.000   0.000  -0.000  -0.000  -0.003  -0.000
  0.000   0.000   0.000   0.007   0.000  -0.000  -0.000  -0.000
  0.007   0.000  -0.000   0.000  -0.000  -0.005  -0.000   0.000
  0.000   0.007   0.000   0.000  -0.000  -0.000  -0.005  -0.000
 total augmentation occupancy for first ion, spin component:           1
  1.992  -0.000  -0.000   0.000  -0.000  -0.005  -0.000  -0.000   0.000  -0.000   0.000  -0.000   0.000   0.066  -0.000  -0.000
 -0.000   1.992   0.000   0.000  -0.000  -0.000  -0.005   0.000  -0.000  -0.000   0.000  -0.000   0.000  -0.000   0.066  -0.000
 -0.000   0.000   1.990  -0.000  -0.000  -0.000   0.000  -0.014  -0.000  -0.000   0.000  -0.000  -0.000  -0.000   0.000   0.000
  0.000   0.000  -0.000   1.992  -0.000   0.000   0.000  -0.000  -0.005  -0.000  -0.000   0.000   0.066   0.000  -0.000  -0.023
 -0.000  -0.000  -0.000  -0.000   1.990  -0.000  -0.000  -0.000  -0.000  -0.014  -0.000   0.000  -0.000  -0.000  -0.000   0.000
 -0.005  -0.000  -0.000   0.000  -0.000   0.041  -0.000  -0.000   0.000   0.000   0.000  -0.000   0.000   0.237  -0.000  -0.000
 -0.000  -0.005   0.000   0.000  -0.000  -0.000   0.041   0.000  -0.000  -0.000   0.000  -0.000   0.000  -0.000   0.237  -0.000
 -0.000   0.000  -0.014  -0.000  -0.000  -0.000   0.000   0.010   0.000  -0.000  -0.000   0.000  -0.000  -0.000   0.000   0.000
  0.000  -0.000  -0.000  -0.005  -0.000   0.000  -0.000   0.000   0.041   0.000  -0.000   0.000   0.237   0.000  -0.000  -0.046
 -0.000  -0.000  -0.000  -0.000  -0.014   0.000  -0.000  -0.000   0.000   0.010   0.000  -0.000  -0.000   0.000  -0.000   0.000
  0.000   0.000   0.000  -0.000  -0.000   0.000   0.000  -0.000  -0.000   0.000   4.865  -1.774  -0.000  -0.000   0.000   0.000
 -0.000  -0.000  -0.000   0.000   0.000  -0.000  -0.000   0.000   0.000  -0.000  -1.774   0.739   0.000   0.000  -0.000  -0.000
  0.000   0.000  -0.000   0.066  -0.000   0.000   0.000  -0.000   0.237  -0.000  -0.000   0.000   2.206   0.000   0.000  -0.418
  0.066  -0.000  -0.000   0.000  -0.000   0.237  -0.000  -0.000   0.000   0.000  -0.000   0.000   0.000   2.206  -0.000  -0.000
 -0.000   0.066   0.000  -0.000  -0.000  -0.000   0.237   0.000  -0.000  -0.000   0.000  -0.000   0.000  -0.000   2.206  -0.000
 -0.000  -0.000   0.000  -0.023   0.000  -0.000  -0.000   0.000  -0.046   0.000   0.000  -0.000  -0.418  -0.000  -0.000   0.085
 -0.023   0.000   0.000  -0.000   0.000  -0.046   0.000   0.000  -0.000   0.000  -0.000   0.000  -0.000  -0.418   0.000   0.000
  0.000  -0.023  -0.000   0.000   0.000   0.000  -0.046  -0.000   0.000   0.000  -0.000   0.000   0.000   0.000  -0.418  -0.000


------------------------ aborting loop because EDIFF is reached ----------------------------------------





 total charge

# of ion       s       p       d       tot
------------------------------------------
    1        1.119   1.243  10.021  12.382
    2        1.119   1.243  10.021  12.382
--------------------------------------------------
tot          2.237   2.485  20.042  24.764

    FORLOC:  cpu time      0.0011: real time      0.0011
    FORHF :  cpu time   1198.1381: real time   1198.0498
    FORNL :  cpu time      0.5314: real time      0.5314
    FORCOR:  cpu time      0.2319: real time      0.2319
    OFIELD:  cpu time      0.0002: real time      0.0002

 VOLUME and BASIS-vectors are now :
 -----------------------------------------------------------------------------
  energy-cutoff  :      500.00
  volume of cell :       47.40
      direct lattice vectors                 reciprocal lattice vectors
     0.000000000  2.872507096  2.872507096    -0.174063974  0.174063974  0.174063974
     2.872507096  0.000000000  2.872507096     0.174063974 -0.174063974  0.174063974
     2.872507096  2.872507096  0.000000000     0.174063974  0.174063974 -0.174063974

  length of vectors
     4.062338493  4.062338493  4.062338493     0.301487646  0.301487646  0.301487646


 FORCES acting on ions:
    Electron-Ion                     Ewald-Force                    Non-Local-Force
 -----------------------------------------------------------------------------------------------
   -.511E-05 0.261E-05 -.179E-05   -.550E-13 0.106E-12 -.964E-13   0.503E-16 0.434E-16 0.462E-16
   0.463E-05 -.310E-06 0.230E-05   0.553E-13 -.106E-12 0.973E-13   -.400E-16 -.330E-16 -.394E-16
 -----------------------------------------------------------------------------------------------
   -.482E-06 0.231E-05 0.511E-06   0.342E-15 0.385E-15 0.885E-15   0.103E-16 0.103E-16 0.681E-17


 POSITION                                       TOTAL-FORCE (eV/Angst)
 -----------------------------------------------------------------------------------
      2.87251      2.87251      2.87251         0.000000      0.000000      0.000000
      4.30876      4.30876      4.30876        -0.000000     -0.000000     -0.000000
 -----------------------------------------------------------------------------------
    total drift:                               -0.000000      0.000002      0.000001


--------------------------------------------------------------------------------------------------------



  FREE ENERGIE OF THE ION-ELECTRON SYSTEM (eV)
  ---------------------------------------------------
  free  energy   TOTEN  =       -10.71063541 eV

  energy  without entropy=      -10.71063541  energy(sigma->0) =      -10.71063541



--------------------------------------------------------------------------------------------------------


    POTLOK:  cpu time      0.2282: real time      0.2281


--------------------------------------------------------------------------------------------------------


 writing wavefunctions
     LOOP+:  cpu time  40083.9694: real time  40081.1311
    4ORBIT:  cpu time      0.0000: real time      0.0000



 total charge

# of ion       s       p       d       tot
------------------------------------------
    1        1.119   1.243  10.021  12.382
    2        1.119   1.243  10.021  12.382
--------------------------------------------------
tot          2.237   2.485  20.042  24.764


 total amount of memory used by VASP MPI-rank0   138750. kBytes
=======================================================================

   base      :      30000. kBytes
   nonl-proj :      12811. kBytes
   fftplans  :       8666. kBytes
   grid      :       3009. kBytes
   one-center:         15. kBytes
   HF        :         64. kBytes
   nonlr-proj:        892. kBytes
   wavefun   :      78939. kBytes
   fock_wrk  :       4354. kBytes

  
  
 General timing and accounting informations for this job:
 ========================================================
  
                  Total CPU time used (sec):    40099.969
                            User time (sec):    38261.560
                          System time (sec):     1838.410
                         Elapsed time (sec):    40097.456
  
                   Maximum memory used (kb):      315004.
                   Average memory used (kb):          N/A
  
                          Minor page faults:      3118573
                          Major page faults:            1
                 Voluntary context switches:         2210
