PROCAR lm decomposed
# of k-points:  141         # of bands:   18         # of ions:    2

 k-point     1 :    0.00000000 0.00000000 0.00000000     weight = 0.00100000

band     1 # energy  -23.68866724 # occ.  2.00000000

ion      s     py     pz     px    dxy    dyz    dz2    dxz  x2-y2    tot
    1  0.000  0.000  0.000  0.000  0.117  0.061  0.000  0.319  0.000  0.497
    2  0.000  0.000  0.000  0.000  0.117  0.061  0.000  0.319  0.000  0.497
tot    0.000  0.000  0.000  0.000  0.234  0.122  0.000  0.637  0.000  0.994

band     2 # energy  -23.68866690 # occ.  2.00000000

ion      s     py     pz     px    dxy    dyz    dz2    dxz  x2-y2    tot
    1  0.000  0.000  0.000  0.000  0.204  0.291  0.000  0.001  0.000  0.497
    2  0.000  0.000  0.000  0.000  0.204  0.291  0.000  0.001  0.000  0.497
tot    0.000  0.000  0.000  0.000  0.408  0.583  0.000  0.003  0.000  0.994

band     3 # energy  -23.68866418 # occ.  2.00000000

ion      s     py     pz     px    dxy    dyz    dz2    dxz  x2-y2    tot
    1  0.000  0.000  0.000  0.000  0.176  0.144  0.000  0.177  0.000  0.497
    2  0.000  0.000  0.000  0.000  0.176  0.144  0.000  0.177  0.000  0.497
tot    0.000  0.000  0.000  0.000  0.351  0.289  0.000  0.353  0.000  0.994

band     4 # energy  -23.65484556 # occ.  2.00000000

ion      s     py     pz     px    dxy    dyz    dz2    dxz  x2-y2    tot
    1  0.000  0.000  0.000  0.000  0.000  0.000  0.486  0.000  0.011  0.496
    2  0.000  0.000  0.000  0.000  0.000  0.000  0.486  0.000  0.011  0.496
tot    0.000  0.000  0.000  0.000  0.000  0.000  0.971  0.000  0.021  0.993

band     5 # energy  -23.65484552 # occ.  2.00000000

ion      s     py     pz     px    dxy    dyz    dz2    dxz  x2-y2    tot
    1  0.000  0.000  0.000  0.000  0.000  0.000  0.011  0.000  0.486  0.496
    2  0.000  0.000  0.000  0.000  0.000  0.000  0.011  0.000  0.486  0.496
tot    0.000  0.000  0.000  0.000  0.000  0.000  0.021  0.000  0.971  0.993

band     6 # energy  -23.47022536 # occ.  2.00000000

ion      s     py     pz     px    dxy    dyz    dz2    dxz  x2-y2    tot
    1  0.000  0.000  0.000  0.000  0.116  0.061  0.000  0.322  0.000  0.498
    2  0.000  0.000  0.000  0.000  0.115  0.061  0.000  0.322  0.000  0.498
tot    0.000  0.000  0.000  0.000  0.231  0.121  0.000  0.643  0.000  0.996

band     7 # energy  -23.47022504 # occ.  2.00000000

ion      s     py     pz     px    dxy    dyz    dz2    dxz  x2-y2    tot
    1  0.000  0.000  0.000  0.000  0.207  0.289  0.000  0.002  0.000  0.498
    2  0.000  0.000  0.000  0.000  0.207  0.289  0.000  0.002  0.000  0.498
tot    0.000  0.000  0.000  0.000  0.415  0.578  0.000  0.003  0.000  0.996

band     8 # energy  -23.47022184 # occ.  2.00000000

ion      s     py     pz     px    dxy    dyz    dz2    dxz  x2-y2    tot
    1  0.000  0.000  0.000  0.000  0.175  0.148  0.000  0.175  0.000  0.498
    2  0.000  0.000  0.000  0.000  0.175  0.148  0.000  0.175  0.000  0.498
tot    0.000  0.000  0.000  0.000  0.350  0.296  0.000  0.349  0.000  0.996

band     9 # energy  -23.45749947 # occ.  2.00000000

ion      s     py     pz     px    dxy    dyz    dz2    dxz  x2-y2    tot
    1  0.000  0.000  0.000  0.000  0.000  0.000  0.488  0.000  0.011  0.499
    2  0.000  0.000  0.000  0.000  0.000  0.000  0.487  0.000  0.011  0.499
tot    0.000  0.000  0.000  0.000  0.000  0.000  0.975  0.000  0.023  0.998

band    10 # energy  -23.45749943 # occ.  2.00000000

ion      s     py     pz     px    dxy    dyz    dz2    dxz  x2-y2    tot
    1  0.000  0.000  0.000  0.000  0.000  0.000  0.011  0.000  0.488  0.499
    2  0.000  0.000  0.000  0.000  0.000  0.000  0.011  0.000  0.487  0.499
tot    0.000  0.000  0.000  0.000  0.000  0.000  0.023  0.000  0.975  0.998

band    11 # energy   -9.46387523 # occ.  2.00000000

ion      s     py     pz     px    dxy    dyz    dz2    dxz  x2-y2    tot
    1  0.309  0.000  0.000  0.000  0.000  0.000  0.000  0.000  0.000  0.309
    2  0.309  0.000  0.000  0.000  0.000  0.000  0.000  0.000  0.000  0.309
tot    0.617  0.000  0.000  0.000  0.000  0.000  0.000  0.000  0.000  0.617

band    12 # energy    4.24404732 # occ.  1.99999998

ion      s     py     pz     px    dxy    dyz    dz2    dxz  x2-y2    tot
    1  0.000  0.101  0.098  0.100  0.011  0.012  0.000  0.012  0.000  0.334
    2  0.000  0.101  0.098  0.100  0.011  0.012  0.000  0.012  0.000  0.334
tot    0.000  0.202  0.196  0.201  0.023  0.023  0.000  0.024  0.000  0.669

band    13 # energy    4.24409315 # occ.  1.99999998

ion      s     py     pz     px    dxy    dyz    dz2    dxz  x2-y2    tot
    1  0.000  0.029  0.197  0.073  0.023  0.009  0.000  0.003  0.000  0.334
    2  0.000  0.029  0.197  0.073  0.023  0.009  0.000  0.003  0.000  0.334
tot    0.000  0.058  0.395  0.146  0.046  0.017  0.000  0.007  0.000  0.669

band    14 # energy    4.24409338 # occ.  1.99999998

ion      s     py     pz     px    dxy    dyz    dz2    dxz  x2-y2    tot
    1  0.000  0.170  0.004  0.126  0.000  0.015  0.000  0.020  0.000  0.334
    2  0.000  0.170  0.004  0.126  0.000  0.015  0.000  0.020  0.000  0.334
tot    0.000  0.339  0.007  0.252  0.001  0.030  0.000  0.040  0.000  0.669

band    15 # energy    4.63476020 # occ.  0.00000006

ion      s     py     pz     px    dxy    dyz    dz2    dxz  x2-y2    tot
    1  0.433  0.000  0.000  0.000  0.000  0.000  0.000  0.000  0.000  0.433
    2  0.433  0.000  0.000  0.000  0.000  0.000  0.000  0.000  0.000  0.433
tot    0.866  0.000  0.000  0.000  0.000  0.000  0.000  0.000  0.000  0.866

band    16 # energy    7.43930007 # occ.  0.00000000

ion      s     py     pz     px    dxy    dyz    dz2    dxz  x2-y2    tot
    1  0.000  0.007  0.117  0.080  0.024  0.017  0.000  0.001  0.000  0.247
    2  0.000  0.007  0.117  0.080  0.024  0.017  0.000  0.001  0.000  0.247
tot    0.000  0.014  0.233  0.161  0.049  0.034  0.000  0.003  0.000  0.493

band    17 # energy    7.43930715 # occ.  0.00000000

ion      s     py     pz     px    dxy    dyz    dz2    dxz  x2-y2    tot
    1  0.000  0.145  0.025  0.034  0.005  0.007  0.000  0.030  0.000  0.247
    2  0.000  0.145  0.025  0.034  0.005  0.007  0.000  0.030  0.000  0.247
tot    0.000  0.289  0.051  0.068  0.011  0.014  0.000  0.060  0.000  0.493

band    18 # energy    7.43931086 # occ.  0.00000000

ion      s     py     pz     px    dxy    dyz    dz2    dxz  x2-y2    tot
    1  0.000  0.052  0.062  0.090  0.013  0.019  0.000  0.011  0.000  0.247
    2  0.000  0.052  0.062  0.090  0.013  0.019  0.000  0.011  0.000  0.247
tot    0.000  0.105  0.124  0.179  0.026  0.037  0.000  0.022  0.000  0.493


 k-point     2 :    0.10000000 0.00000000 0.00000000     weight = 0.00800000

band     1 # energy  -23.69368316 # occ.  2.00000000

ion      s     py     pz     px    dxy    dyz    dz2    dxz  x2-y2    tot
    1  0.000  0.000  0.000  0.000  0.235  0.000  0.028  0.224  0.009  0.497
    2  0.000  0.000  0.000  0.000  0.235  0.000  0.028  0.224  0.009  0.497
tot    0.000  0.000  0.000  0.000  0.471  0.000  0.057  0.448  0.017  0.994

band     2 # energy  -23.69368052 # occ.  2.00000000

ion      s     py     pz     px    dxy    dyz    dz2    dxz  x2-y2    tot
    1  0.000  0.000  0.000  0.000  0.071  0.306  0.009  0.082  0.028  0.497
    2  0.000  0.000  0.000  0.000  0.071  0.306  0.009  0.082  0.028  0.497
tot    0.000  0.000  0.000  0.000  0.142  0.613  0.017  0.164  0.057  0.994

band     3 # energy  -23.68718550 # occ.  2.00000000

ion      s     py     pz     px    dxy    dyz    dz2    dxz  x2-y2    tot
    1  0.000  0.000  0.000  0.000  0.166  0.165  0.000  0.166  0.000  0.497
    2  0.000  0.000  0.000  0.000  0.166  0.165  0.000  0.166  0.000  0.497
tot    0.000  0.000  0.000  0.000  0.331  0.331  0.000  0.331  0.000  0.994

band     4 # energy  -23.64791479 # occ.  2.00000000

ion      s     py     pz     px    dxy    dyz    dz2    dxz  x2-y2    tot
    1  0.000  0.000  0.000  0.000  0.008  0.024  0.156  0.004  0.303  0.496
    2  0.000  0.000  0.000  0.000  0.008  0.024  0.156  0.004  0.304  0.497
tot    0.000  0.000  0.000  0.000  0.017  0.049  0.312  0.008  0.607  0.993

band     5 # energy  -23.64791471 # occ.  2.00000000

ion      s     py     pz     px    dxy    dyz    dz2    dxz  x2-y2    tot
    1  0.000  0.000  0.000  0.000  0.016  0.000  0.303  0.020  0.156  0.496
    2  0.000  0.000  0.000  0.000  0.016  0.000  0.304  0.020  0.156  0.497
tot    0.000  0.000  0.000  0.000  0.033  0.000  0.607  0.041  0.312  0.993

band     6 # energy  -23.47759537 # occ.  2.00000000

ion      s     py     pz     px    dxy    dyz    dz2    dxz  x2-y2    tot
    1  0.000  0.000  0.000  0.000  0.159  0.000  0.142  0.153  0.044  0.498
    2  0.000  0.000  0.000  0.000  0.159  0.000  0.142  0.153  0.044  0.498
tot    0.000  0.000  0.000  0.000  0.317  0.000  0.284  0.307  0.088  0.996

band     7 # energy  -23.47759377 # occ.  2.00000000

ion      s     py     pz     px    dxy    dyz    dz2    dxz  x2-y2    tot
    1  0.000  0.000  0.000  0.000  0.049  0.208  0.044  0.055  0.142  0.498
    2  0.000  0.000  0.000  0.000  0.049  0.208  0.044  0.055  0.142  0.498
tot    0.000  0.000  0.000  0.000  0.099  0.416  0.088  0.109  0.284  0.996

band     8 # energy  -23.47174742 # occ.  2.00000000

ion      s     py     pz     px    dxy    dyz    dz2    dxz  x2-y2    tot
    1  0.000  0.000  0.000  0.000  0.166  0.166  0.000  0.166  0.000  0.498
    2  0.000  0.000  0.000  0.000  0.166  0.166  0.000  0.166  0.000  0.498
tot    0.000  0.000  0.000  0.000  0.332  0.332  0.000  0.332  0.000  0.996

band     9 # energy  -23.45117419 # occ.  2.00000000

ion      s     py     pz     px    dxy    dyz    dz2    dxz  x2-y2    tot
    1  0.000  0.000  0.000  0.000  0.095  0.000  0.241  0.090  0.072  0.499
    2  0.000  0.000  0.000  0.000  0.095  0.000  0.241  0.090  0.072  0.499
tot    0.000  0.000  0.000  0.000  0.191  0.000  0.482  0.181  0.143  0.997

band    10 # energy  -23.45117271 # occ.  2.00000000

ion      s     py     pz     px    dxy    dyz    dz2    dxz  x2-y2    tot
    1  0.000  0.000  0.000  0.000  0.028  0.124  0.072  0.034  0.241  0.499
    2  0.000  0.000  0.000  0.000  0.028  0.124  0.072  0.034  0.241  0.499
tot    0.000  0.000  0.000  0.000  0.057  0.248  0.143  0.067  0.482  0.997

band    11 # energy   -9.33406935 # occ.  2.00000000

ion      s     py     pz     px    dxy    dyz    dz2    dxz  x2-y2    tot
    1  0.308  0.001  0.001  0.001  0.000  0.000  0.000  0.000  0.000  0.310
    2  0.308  0.001  0.001  0.001  0.000  0.000  0.000  0.000  0.000  0.310
tot    0.616  0.001  0.001  0.001  0.000  0.000  0.000  0.000  0.000  0.619

band    12 # energy    2.36153609 # occ.  2.00000000

ion      s     py     pz     px    dxy    dyz    dz2    dxz  x2-y2    tot
    1  0.177  0.054  0.054  0.054  0.007  0.007  0.000  0.007  0.000  0.357
    2  0.177  0.054  0.054  0.054  0.007  0.007  0.000  0.007  0.000  0.357
tot    0.353  0.107  0.107  0.107  0.013  0.013  0.000  0.013  0.000  0.715

band    13 # energy    4.01999516 # occ.  2.00000000

ion      s     py     pz     px    dxy    dyz    dz2    dxz  x2-y2    tot
    1  0.000  0.050  0.048  0.197  0.005  0.021  0.000  0.005  0.000  0.327
    2  0.000  0.050  0.048  0.197  0.005  0.021  0.000  0.005  0.000  0.327
tot    0.000  0.101  0.096  0.393  0.010  0.042  0.000  0.011  0.000  0.654

band    14 # energy    4.02003350 # occ.  2.00000000

ion      s     py     pz     px    dxy    dyz    dz2    dxz  x2-y2    tot
    1  0.000  0.146  0.149  0.000  0.016  0.000  0.000  0.016  0.000  0.327
    2  0.000  0.146  0.149  0.000  0.016  0.000  0.000  0.016  0.000  0.327
tot    0.000  0.293  0.298  0.000  0.032  0.000  0.000  0.031  0.000  0.654

band    15 # energy    5.68085113 # occ.  0.00000000

ion      s     py     pz     px    dxy    dyz    dz2    dxz  x2-y2    tot
    1  0.233  0.039  0.039  0.039  0.004  0.004  0.000  0.004  0.000  0.361
    2  0.233  0.039  0.039  0.039  0.004  0.004  0.000  0.004  0.000  0.361
tot    0.467  0.078  0.078  0.078  0.007  0.007  0.000  0.007  0.000  0.722

band    16 # energy    7.74620470 # occ.  0.00000000

ion      s     py     pz     px    dxy    dyz    dz2    dxz  x2-y2    tot
    1  0.000  0.029  0.043  0.138  0.009  0.029  0.000  0.006  0.001  0.254
    2  0.000  0.029  0.043  0.138  0.009  0.029  0.000  0.006  0.001  0.254
tot    0.000  0.057  0.085  0.275  0.018  0.058  0.001  0.012  0.001  0.508

band    17 # energy    7.74622047 # occ.  0.00000000

ion      s     py     pz     px    dxy    dyz    dz2    dxz  x2-y2    tot
    1  0.000  0.111  0.097  0.002  0.020  0.000  0.001  0.023  0.000  0.254
    2  0.000  0.111  0.097  0.002  0.020  0.000  0.001  0.023  0.000  0.254
tot    0.000  0.221  0.193  0.003  0.041  0.001  0.001  0.047  0.001  0.508

band    18 # energy    7.96121712 # occ.  0.00000000

ion      s     py     pz     px    dxy    dyz    dz2    dxz  x2-y2    tot
    1  0.038  0.065  0.065  0.065  0.014  0.014  0.000  0.014  0.000  0.275
    2  0.038  0.065  0.065  0.065  0.014  0.014  0.000  0.014  0.000  0.275
tot    0.077  0.129  0.129  0.129  0.028  0.028  0.000  0.028  0.000  0.550


 k-point     3 :    0.20000000 0.00000000 0.00000000     weight = 0.00800000

band     1 # energy  -23.70165545 # occ.  2.00000000

ion      s     py     pz     px    dxy    dyz    dz2    dxz  x2-y2    tot
    1  0.000  0.000  0.000  0.000  0.228  0.000  0.040  0.216  0.012  0.497
    2  0.000  0.000  0.000  0.000  0.228  0.000  0.040  0.216  0.012  0.497
tot    0.000  0.000  0.000  0.000  0.456  0.000  0.080  0.433  0.024  0.993

band     2 # energy  -23.70165259 # occ.  2.00000000

ion      s     py     pz     px    dxy    dyz    dz2    dxz  x2-y2    tot
    1  0.000  0.000  0.000  0.000  0.068  0.296  0.012  0.080  0.040  0.497
    2  0.000  0.000  0.000  0.000  0.068  0.296  0.012  0.080  0.040  0.497
tot    0.000  0.000  0.000  0.000  0.137  0.592  0.024  0.160  0.080  0.993

band     3 # energy  -23.68337813 # occ.  2.00000000

ion      s     py     pz     px    dxy    dyz    dz2    dxz  x2-y2    tot
    1  0.000  0.000  0.000  0.000  0.166  0.165  0.000  0.166  0.000  0.497
    2  0.000  0.000  0.000  0.000  0.166  0.165  0.000  0.166  0.000  0.497
tot    0.000  0.000  0.000  0.000  0.331  0.331  0.000  0.331  0.000  0.994

band     4 # energy  -23.63542414 # occ.  2.00000000

ion      s     py     pz     px    dxy    dyz    dz2    dxz  x2-y2    tot
    1  0.000  0.000  0.000  0.000  0.009  0.036  0.106  0.009  0.337  0.497
    2  0.000  0.000  0.000  0.000  0.009  0.036  0.106  0.009  0.337  0.497
tot    0.000  0.000  0.000  0.000  0.017  0.071  0.212  0.019  0.674  0.993

band     5 # energy  -23.63542368 # occ.  2.00000000

ion      s     py     pz     px    dxy    dyz    dz2    dxz  x2-y2    tot
    1  0.000  0.000  0.000  0.000  0.027  0.000  0.337  0.026  0.106  0.497
    2  0.000  0.000  0.000  0.000  0.027  0.000  0.337  0.026  0.106  0.497
tot    0.000  0.000  0.000  0.000  0.054  0.000  0.674  0.053  0.212  0.993

band     6 # energy  -23.48785663 # occ.  2.00000000

ion      s     py     pz     px    dxy    dyz    dz2    dxz  x2-y2    tot
    1  0.000  0.000  0.000  0.000  0.098  0.000  0.232  0.095  0.073  0.498
    2  0.000  0.000  0.000  0.000  0.098  0.000  0.232  0.095  0.073  0.498
tot    0.000  0.000  0.000  0.000  0.195  0.000  0.464  0.190  0.147  0.996

band     7 # energy  -23.48785608 # occ.  2.00000000

ion      s     py     pz     px    dxy    dyz    dz2    dxz  x2-y2    tot
    1  0.000  0.000  0.000  0.000  0.031  0.128  0.073  0.033  0.232  0.498
    2  0.000  0.000  0.000  0.000  0.031  0.128  0.073  0.033  0.232  0.498
tot    0.000  0.000  0.000  0.000  0.062  0.257  0.147  0.067  0.464  0.996

band     8 # energy  -23.47596865 # occ.  2.00000000

ion      s     py     pz     px    dxy    dyz    dz2    dxz  x2-y2    tot
    1  0.000  0.000  0.000  0.000  0.166  0.166  0.000  0.166  0.000  0.498
    2  0.000  0.000  0.000  0.000  0.166  0.166  0.000  0.166  0.000  0.498
tot    0.000  0.000  0.000  0.000  0.332  0.332  0.000  0.332  0.000  0.996

band     9 # energy  -23.44337091 # occ.  2.00000000

ion      s     py     pz     px    dxy    dyz    dz2    dxz  x2-y2    tot
    1  0.000  0.000  0.000  0.000  0.156  0.000  0.150  0.148  0.045  0.499
    2  0.000  0.000  0.000  0.000  0.156  0.000  0.150  0.148  0.045  0.499
tot    0.000  0.000  0.000  0.000  0.311  0.000  0.299  0.296  0.090  0.997

band    10 # energy  -23.44336830 # occ.  2.00000000

ion      s     py     pz     px    dxy    dyz    dz2    dxz  x2-y2    tot
    1  0.000  0.000  0.000  0.000  0.047  0.202  0.045  0.054  0.150  0.499
    2  0.000  0.000  0.000  0.000  0.047  0.202  0.045  0.054  0.150  0.499
tot    0.000  0.000  0.000  0.000  0.094  0.405  0.090  0.109  0.299  0.997

band    11 # energy   -8.95202703 # occ.  2.00000000

ion      s     py     pz     px    dxy    dyz    dz2    dxz  x2-y2    tot
    1  0.306  0.002  0.002  0.002  0.000  0.000  0.000  0.000  0.000  0.313
    2  0.306  0.002  0.002  0.002  0.000  0.000  0.000  0.000  0.000  0.313
tot    0.611  0.004  0.004  0.004  0.000  0.000  0.000  0.000  0.000  0.625

band    12 # energy    0.24832127 # occ.  2.00000000

ion      s     py     pz     px    dxy    dyz    dz2    dxz  x2-y2    tot
    1  0.183  0.047  0.047  0.047  0.005  0.005  0.000  0.005  0.000  0.338
    2  0.183  0.047  0.047  0.047  0.005  0.005  0.000  0.005  0.000  0.338
tot    0.367  0.094  0.094  0.094  0.010  0.010  0.000  0.010  0.000  0.677

band    13 # energy    3.57000975 # occ.  2.00000000

ion      s     py     pz     px    dxy    dyz    dz2    dxz  x2-y2    tot
    1  0.000  0.050  0.047  0.194  0.004  0.017  0.000  0.004  0.001  0.317
    2  0.000  0.050  0.047  0.194  0.004  0.017  0.000  0.004  0.001  0.317
tot    0.000  0.100  0.094  0.388  0.008  0.033  0.000  0.009  0.001  0.634

band    14 # energy    3.57004454 # occ.  2.00000000

ion      s     py     pz     px    dxy    dyz    dz2    dxz  x2-y2    tot
    1  0.000  0.144  0.147  0.000  0.013  0.000  0.001  0.012  0.000  0.317
    2  0.000  0.144  0.147  0.000  0.013  0.000  0.001  0.012  0.000  0.317
tot    0.000  0.288  0.294  0.000  0.025  0.000  0.001  0.025  0.000  0.634

band    15 # energy    5.57901389 # occ.  0.00000000

ion      s     py     pz     px    dxy    dyz    dz2    dxz  x2-y2    tot
    1  0.198  0.032  0.032  0.032  0.006  0.006  0.000  0.006  0.000  0.310
    2  0.198  0.032  0.032  0.032  0.006  0.006  0.000  0.006  0.000  0.310
tot    0.396  0.063  0.063  0.063  0.011  0.011  0.000  0.011  0.000  0.619

band    16 # energy    8.32813446 # occ.  0.00000000

ion      s     py     pz     px    dxy    dyz    dz2    dxz  x2-y2    tot
    1  0.000  0.033  0.039  0.136  0.008  0.029  0.002  0.007  0.005  0.258
    2  0.000  0.033  0.039  0.136  0.008  0.029  0.002  0.007  0.005  0.258
tot    0.000  0.065  0.077  0.272  0.016  0.057  0.004  0.014  0.010  0.516

band    17 # energy    8.32815445 # occ.  0.00000000

ion      s     py     pz     px    dxy    dyz    dz2    dxz  x2-y2    tot
    1  0.000  0.106  0.100  0.002  0.021  0.000  0.005  0.022  0.002  0.258
    2  0.000  0.106  0.100  0.002  0.021  0.000  0.005  0.022  0.002  0.258
tot    0.000  0.211  0.199  0.004  0.042  0.001  0.010  0.044  0.004  0.516

band    18 # energy    9.58929653 # occ.  0.00000000

ion      s     py     pz     px    dxy    dyz    dz2    dxz  x2-y2    tot
    1  0.084  0.063  0.063  0.063  0.011  0.011  0.000  0.011  0.000  0.306
    2  0.085  0.063  0.063  0.063  0.011  0.011  0.000  0.011  0.000  0.306
tot    0.169  0.126  0.126  0.126  0.022  0.022  0.000  0.022  0.000  0.611


 k-point     4 :    0.30000000 0.00000000 0.00000000     weight = 0.00800000

band     1 # energy  -23.70735100 # occ.  2.00000000

ion      s     py     pz     px    dxy    dyz    dz2    dxz  x2-y2    tot
    1  0.000  0.000  0.000  0.000  0.234  0.000  0.031  0.222  0.009  0.497
    2  0.000  0.000  0.000  0.000  0.234  0.000  0.031  0.222  0.009  0.497
tot    0.000  0.000  0.000  0.000  0.468  0.000  0.062  0.443  0.019  0.993

band     2 # energy  -23.70734781 # occ.  2.00000000

ion      s     py     pz     px    dxy    dyz    dz2    dxz  x2-y2    tot
    1  0.000  0.000  0.000  0.000  0.070  0.304  0.009  0.082  0.031  0.497
    2  0.000  0.000  0.000  0.000  0.070  0.304  0.009  0.082  0.031  0.497
tot    0.000  0.000  0.000  0.000  0.140  0.608  0.019  0.164  0.062  0.993

band     3 # energy  -23.67860412 # occ.  2.00000000

ion      s     py     pz     px    dxy    dyz    dz2    dxz  x2-y2    tot
    1  0.000  0.000  0.000  0.000  0.165  0.165  0.000  0.165  0.000  0.497
    2  0.000  0.000  0.000  0.000  0.166  0.165  0.000  0.166  0.000  0.497
tot    0.000  0.000  0.000  0.000  0.331  0.331  0.000  0.331  0.000  0.994

band     4 # energy  -23.62504738 # occ.  2.00000000

ion      s     py     pz     px    dxy    dyz    dz2    dxz  x2-y2    tot
    1  0.000  0.000  0.000  0.000  0.007  0.031  0.105  0.008  0.346  0.497
    2  0.000  0.000  0.000  0.000  0.007  0.031  0.105  0.008  0.346  0.497
tot    0.000  0.000  0.000  0.000  0.014  0.062  0.209  0.017  0.691  0.993

band     5 # energy  -23.62504647 # occ.  2.00000000

ion      s     py     pz     px    dxy    dyz    dz2    dxz  x2-y2    tot
    1  0.000  0.000  0.000  0.000  0.024  0.000  0.346  0.023  0.105  0.497
    2  0.000  0.000  0.000  0.000  0.024  0.000  0.346  0.023  0.105  0.497
tot    0.000  0.000  0.000  0.000  0.048  0.000  0.691  0.045  0.209  0.993

band     6 # energy  -23.49525754 # occ.  2.00000000

ion      s     py     pz     px    dxy    dyz    dz2    dxz  x2-y2    tot
    1  0.000  0.000  0.000  0.000  0.016  0.071  0.087  0.020  0.304  0.498
    2  0.000  0.000  0.000  0.000  0.016  0.071  0.087  0.020  0.304  0.498
tot    0.000  0.000  0.000  0.000  0.032  0.142  0.174  0.040  0.608  0.996

band     7 # energy  -23.49525728 # occ.  2.00000000

ion      s     py     pz     px    dxy    dyz    dz2    dxz  x2-y2    tot
    1  0.000  0.000  0.000  0.000  0.055  0.000  0.304  0.051  0.087  0.498
    2  0.000  0.000  0.000  0.000  0.055  0.000  0.304  0.051  0.087  0.498
tot    0.000  0.000  0.000  0.000  0.111  0.000  0.608  0.103  0.174  0.996

band     8 # energy  -23.48119939 # occ.  2.00000000

ion      s     py     pz     px    dxy    dyz    dz2    dxz  x2-y2    tot
    1  0.000  0.000  0.000  0.000  0.166  0.166  0.000  0.166  0.000  0.498
    2  0.000  0.000  0.000  0.000  0.166  0.166  0.000  0.166  0.000  0.498
tot    0.001  0.000  0.000  0.000  0.332  0.332  0.000  0.332  0.000  0.996

band     9 # energy  -23.43818963 # occ.  2.00000000

ion      s     py     pz     px    dxy    dyz    dz2    dxz  x2-y2    tot
    1  0.000  0.000  0.000  0.000  0.197  0.000  0.087  0.188  0.026  0.499
    2  0.000  0.000  0.000  0.000  0.197  0.000  0.087  0.188  0.026  0.499
tot    0.000  0.000  0.000  0.000  0.395  0.000  0.174  0.376  0.053  0.997

band    10 # energy  -23.43818609 # occ.  2.00000000

ion      s     py     pz     px    dxy    dyz    dz2    dxz  x2-y2    tot
    1  0.000  0.000  0.000  0.000  0.060  0.257  0.026  0.069  0.087  0.499
    2  0.000  0.000  0.000  0.000  0.060  0.257  0.026  0.069  0.087  0.499
tot    0.000  0.000  0.000  0.000  0.119  0.514  0.053  0.138  0.174  0.997

band    11 # energy   -8.35026010 # occ.  2.00000000

ion      s     py     pz     px    dxy    dyz    dz2    dxz  x2-y2    tot
    1  0.304  0.004  0.004  0.004  0.001  0.001  0.000  0.001  0.000  0.319
    2  0.304  0.004  0.004  0.004  0.001  0.001  0.000  0.001  0.000  0.319
tot    0.608  0.008  0.008  0.008  0.001  0.001  0.000  0.001  0.000  0.637

band    12 # energy   -1.66888302 # occ.  2.00000000

ion      s     py     pz     px    dxy    dyz    dz2    dxz  x2-y2    tot
    1  0.187  0.041  0.041  0.041  0.003  0.003  0.000  0.003  0.000  0.321
    2  0.187  0.041  0.041  0.041  0.003  0.003  0.000  0.003  0.000  0.321
tot    0.374  0.083  0.083  0.083  0.006  0.006  0.000  0.006  0.000  0.641

band    13 # energy    3.15570029 # occ.  2.00000000

ion      s     py     pz     px    dxy    dyz    dz2    dxz  x2-y2    tot
    1  0.000  0.050  0.047  0.194  0.003  0.012  0.000  0.003  0.001  0.311
    2  0.000  0.050  0.047  0.194  0.003  0.012  0.000  0.003  0.001  0.311
tot    0.000  0.100  0.094  0.388  0.006  0.025  0.001  0.006  0.003  0.622

band    14 # energy    3.15573289 # occ.  2.00000000

ion      s     py     pz     px    dxy    dyz    dz2    dxz  x2-y2    tot
    1  0.000  0.144  0.147  0.000  0.009  0.000  0.001  0.009  0.000  0.311
    2  0.000  0.144  0.147  0.000  0.009  0.000  0.001  0.009  0.000  0.311
tot    0.000  0.288  0.294  0.000  0.019  0.000  0.003  0.019  0.001  0.622

band    15 # energy    5.22623654 # occ.  0.00000000

ion      s     py     pz     px    dxy    dyz    dz2    dxz  x2-y2    tot
    1  0.201  0.025  0.025  0.025  0.007  0.007  0.000  0.007  0.000  0.296
    2  0.201  0.025  0.025  0.025  0.007  0.007  0.000  0.007  0.000  0.296
tot    0.401  0.050  0.050  0.050  0.014  0.014  0.000  0.014  0.000  0.591

band    16 # energy    8.67129014 # occ.  0.00000000

ion      s     py     pz     px    dxy    dyz    dz2    dxz  x2-y2    tot
    1  0.000  0.063  0.007  0.112  0.002  0.023  0.001  0.013  0.020  0.243
    2  0.000  0.063  0.007  0.112  0.002  0.023  0.001  0.013  0.020  0.243
tot    0.000  0.127  0.015  0.225  0.003  0.047  0.003  0.026  0.041  0.485

band    17 # energy    8.67130878 # occ.  0.00000000

ion      s     py     pz     px    dxy    dyz    dz2    dxz  x2-y2    tot
    1  0.000  0.059  0.115  0.010  0.024  0.002  0.020  0.012  0.001  0.243
    2  0.000  0.059  0.115  0.010  0.024  0.002  0.020  0.012  0.001  0.243
tot    0.000  0.117  0.229  0.019  0.048  0.004  0.041  0.024  0.003  0.485

band    18 # energy   11.47699966 # occ.  0.00000000

ion      s     py     pz     px    dxy    dyz    dz2    dxz  x2-y2    tot
    1  0.074  0.068  0.068  0.068  0.008  0.008  0.000  0.008  0.000  0.303
    2  0.071  0.065  0.065  0.066  0.009  0.009  0.000  0.009  0.000  0.294
tot    0.145  0.134  0.134  0.133  0.017  0.017  0.000  0.017  0.000  0.597


 k-point     5 :    0.40000000 0.00000000 0.00000000     weight = 0.00800000

band     1 # energy  -23.71019032 # occ.  2.00000000

ion      s     py     pz     px    dxy    dyz    dz2    dxz  x2-y2    tot
    1  0.000  0.000  0.000  0.000  0.243  0.000  0.019  0.230  0.006  0.497
    2  0.000  0.000  0.000  0.000  0.243  0.000  0.019  0.230  0.006  0.497
tot    0.000  0.000  0.000  0.000  0.485  0.000  0.037  0.459  0.011  0.993

band     2 # energy  -23.71018685 # occ.  2.00000000

ion      s     py     pz     px    dxy    dyz    dz2    dxz  x2-y2    tot
    1  0.000  0.000  0.000  0.000  0.072  0.315  0.006  0.085  0.019  0.497
    2  0.000  0.000  0.000  0.000  0.072  0.315  0.006  0.085  0.019  0.497
tot    0.000  0.000  0.000  0.000  0.145  0.629  0.011  0.171  0.037  0.993

band     3 # energy  -23.67458290 # occ.  2.00000000

ion      s     py     pz     px    dxy    dyz    dz2    dxz  x2-y2    tot
    1  0.000  0.000  0.000  0.000  0.165  0.165  0.000  0.165  0.000  0.497
    2  0.000  0.000  0.000  0.000  0.165  0.165  0.000  0.165  0.000  0.497
tot    0.001  0.000  0.000  0.000  0.331  0.331  0.000  0.331  0.000  0.994

band     4 # energy  -23.61927073 # occ.  2.00000000

ion      s     py     pz     px    dxy    dyz    dz2    dxz  x2-y2    tot
    1  0.000  0.000  0.000  0.000  0.006  0.024  0.106  0.006  0.355  0.497
    2  0.000  0.000  0.000  0.000  0.006  0.024  0.106  0.006  0.355  0.497
tot    0.000  0.000  0.000  0.000  0.011  0.048  0.212  0.013  0.709  0.993

band     5 # energy  -23.61926947 # occ.  2.00000000

ion      s     py     pz     px    dxy    dyz    dz2    dxz  x2-y2    tot
    1  0.000  0.000  0.000  0.000  0.018  0.000  0.355  0.017  0.106  0.497
    2  0.000  0.000  0.000  0.000  0.018  0.000  0.355  0.017  0.106  0.497
tot    0.000  0.000  0.000  0.000  0.037  0.000  0.709  0.035  0.212  0.993

band     6 # energy  -23.49867793 # occ.  2.00000000

ion      s     py     pz     px    dxy    dyz    dz2    dxz  x2-y2    tot
    1  0.000  0.000  0.000  0.000  0.007  0.028  0.105  0.008  0.350  0.498
    2  0.000  0.000  0.000  0.000  0.007  0.028  0.105  0.008  0.350  0.498
tot    0.000  0.000  0.000  0.000  0.013  0.056  0.211  0.015  0.701  0.997

band     7 # energy  -23.49867704 # occ.  2.00000000

ion      s     py     pz     px    dxy    dyz    dz2    dxz  x2-y2    tot
    1  0.000  0.000  0.000  0.000  0.022  0.000  0.350  0.021  0.105  0.498
    2  0.000  0.000  0.000  0.000  0.022  0.000  0.350  0.021  0.105  0.498
tot    0.000  0.000  0.000  0.000  0.043  0.000  0.701  0.041  0.211  0.997

band     8 # energy  -23.48553370 # occ.  2.00000000

ion      s     py     pz     px    dxy    dyz    dz2    dxz  x2-y2    tot
    1  0.000  0.000  0.000  0.000  0.166  0.166  0.000  0.166  0.000  0.498
    2  0.000  0.000  0.000  0.000  0.166  0.166  0.000  0.166  0.000  0.498
tot    0.001  0.000  0.000  0.000  0.332  0.332  0.000  0.332  0.000  0.996

band     9 # energy  -23.43563902 # occ.  2.00000000

ion      s     py     pz     px    dxy    dyz    dz2    dxz  x2-y2    tot
    1  0.000  0.000  0.000  0.000  0.227  0.000  0.042  0.217  0.013  0.499
    2  0.000  0.000  0.000  0.000  0.227  0.000  0.042  0.217  0.013  0.499
tot    0.000  0.000  0.000  0.000  0.455  0.000  0.083  0.433  0.025  0.997

band    10 # energy  -23.43563481 # occ.  2.00000000

ion      s     py     pz     px    dxy    dyz    dz2    dxz  x2-y2    tot
    1  0.000  0.000  0.000  0.000  0.069  0.296  0.013  0.079  0.042  0.499
    2  0.000  0.000  0.000  0.000  0.069  0.296  0.013  0.079  0.042  0.499
tot    0.000  0.000  0.000  0.000  0.137  0.592  0.025  0.159  0.083  0.997

band    11 # energy   -7.64480994 # occ.  2.00000000

ion      s     py     pz     px    dxy    dyz    dz2    dxz  x2-y2    tot
    1  0.308  0.006  0.006  0.006  0.001  0.001  0.000  0.001  0.000  0.329