       N       E                     dE             d eps       ncg     rms          rms(c)
DAV:   1     0.466310578082E+04    0.46631E+04   -0.16857E+05  2157   0.275E+03
DAV:   2     0.862754145810E+03   -0.38004E+04   -0.36878E+04  2280   0.679E+02
DAV:   3    -0.237866595162E+02   -0.88654E+03   -0.85400E+03  2396   0.230E+02
DAV:   4    -0.122278668886E+03   -0.98492E+02   -0.96545E+02  2336   0.849E+01
DAV:   5    -0.126780227672E+03   -0.45016E+01   -0.44679E+01  2192   0.201E+01    0.113E+01
DAV:   6    -0.125494100796E+03    0.12861E+01   -0.31504E+00  2248   0.131E+01    0.636E+00
DAV:   7    -0.130385665079E+03   -0.48916E+01   -0.18420E+01  2920   0.576E+01    0.626E+00
DAV:   8    -0.125014323853E+03    0.53713E+01   -0.15378E+01  2832   0.172E+01    0.158E+00
DAV:   9    -0.125111700729E+03   -0.97377E-01   -0.23889E+00  2248   0.756E+00    0.886E-01
DAV:  10    -0.125117585750E+03   -0.58850E-02   -0.40565E-01  2112   0.393E+00    0.626E-01
DAV:  11    -0.125117163577E+03    0.42217E-03   -0.71603E-02  2312   0.256E+00    0.487E-01
DAV:  12    -0.125117130116E+03    0.33460E-04   -0.32711E-02  2208   0.187E+00    0.212E-01
DAV:  13    -0.125118975926E+03   -0.18458E-02   -0.14207E-02  2128   0.108E+00    0.138E-01
DAV:  14    -0.125119080361E+03   -0.10444E-03   -0.36600E-03  2336   0.596E-01    0.854E-02
DAV:  15    -0.125119615830E+03   -0.53547E-03   -0.22871E-03  2208   0.533E-01    0.514E-02
DAV:  16    -0.125119619347E+03   -0.35162E-05   -0.14661E-03  2152   0.489E-01    0.189E-02
DAV:  17    -0.125119812679E+03   -0.19333E-03   -0.82295E-04  2888   0.159E-01    0.214E-02
DAV:  18    -0.125119961491E+03   -0.14881E-03   -0.18159E-04  2256   0.639E-02    0.203E-02
DAV:  19    -0.125120166102E+03   -0.20461E-03   -0.59916E-05  2104   0.127E-01    0.884E-03
DAV:  20    -0.125120337786E+03   -0.17168E-03   -0.49351E-05  2203   0.636E-02    0.110E-02
DAV:  21    -0.125120365289E+03   -0.27503E-04   -0.22308E-05  2264   0.545E-02    0.743E-03
DAV:  22    -0.125120434714E+03   -0.69425E-04   -0.15183E-05  2035   0.242E-02    0.621E-03
DAV:  23    -0.125120452161E+03   -0.17447E-04   -0.66391E-06  1944   0.217E-02    0.651E-03
DAV:  24    -0.125120460602E+03   -0.84410E-05   -0.13113E-06  1355   0.101E-02    0.605E-03
DAV:  25    -0.125120503041E+03   -0.42438E-04   -0.22801E-06  1336   0.181E-02    0.574E-03
DAV:  26    -0.125120507999E+03   -0.49581E-05   -0.63613E-07  1360   0.108E-02    0.504E-03
DAV:  27    -0.125120519784E+03   -0.11785E-04   -0.36731E-07  1304   0.973E-03    0.550E-03
DAV:  28    -0.125120529242E+03   -0.94583E-05   -0.69743E-07  1331   0.151E-02    0.480E-03
DAV:  29    -0.125120529686E+03   -0.44322E-06   -0.34645E-07  1256   0.257E-03
   1 F= -.12512053E+03 E0= -.12509950E+03  d E =-.125121E+03
       N       E                     dE             d eps       ncg     rms          rms(c)
DAV:   1    -0.125131112863E+03   -0.10584E-01   -0.66302E+00  2166   0.535E+00    0.223E-01
DAV:   2    -0.125142484541E+03   -0.11372E-01   -0.12806E-01  2408   0.176E+00    0.133E-01
DAV:   3    -0.125147792460E+03   -0.53079E-02   -0.50371E-02  2296   0.197E+00    0.229E-01
DAV:   4    -0.125143796108E+03    0.39964E-02   -0.76045E-03  2464   0.123E+00    0.567E-02
DAV:   5    -0.125144216822E+03   -0.42071E-03   -0.49470E-03  2280   0.402E-01    0.368E-02
DAV:   6    -0.125144362698E+03   -0.14588E-03   -0.14493E-03  2344   0.189E-01    0.246E-02
DAV:   7    -0.125144370473E+03   -0.77751E-05   -0.10230E-04  2280   0.157E-01    0.780E-03
DAV:   8    -0.125144380727E+03   -0.10254E-04   -0.10546E-04  2448   0.658E-02    0.692E-03
DAV:   9    -0.125144382404E+03   -0.16774E-05   -0.15035E-05  1912   0.263E-02    0.610E-03
DAV:  10    -0.125144382933E+03   -0.52882E-06   -0.18315E-06  1400   0.146E-02
   2 F= -.12514438E+03 E0= -.12512482E+03  d E =-.238532E-01
       N       E                     dE             d eps       ncg     rms          rms(c)
DAV:   1    -0.125139675000E+03    0.47074E-02   -0.66739E+00  2166   0.535E+00    0.212E-01
DAV:   2    -0.125152963394E+03   -0.13288E-01   -0.14121E-01  2480   0.186E+00    0.170E-01
DAV:   3    -0.125154462875E+03   -0.14995E-02   -0.49691E-02  2264   0.181E+00    0.166E-01
DAV:   4    -0.125152641054E+03    0.18218E-02   -0.53703E-03  2403   0.881E-01    0.507E-02
DAV:   5    -0.125153027719E+03   -0.38666E-03   -0.41088E-03  2144   0.404E-01    0.303E-02
DAV:   6    -0.125153114764E+03   -0.87045E-04   -0.98578E-04  2272   0.250E-01    0.184E-02
DAV:   7    -0.125153145721E+03   -0.30958E-04   -0.29588E-04  2555   0.124E-01    0.879E-03
DAV:   8    -0.125153153506E+03   -0.77848E-05   -0.73671E-05  2264   0.563E-02    0.667E-03
DAV:   9    -0.125153155016E+03   -0.15097E-05   -0.13357E-05  1656   0.379E-02    0.552E-03
DAV:  10    -0.125153156570E+03   -0.15543E-05   -0.99758E-06  1936   0.188E-02    0.524E-03
DAV:  11    -0.125153157256E+03   -0.68601E-06   -0.13563E-06  1320   0.993E-03
   3 F= -.12515316E+03 E0= -.12513475E+03  d E =-.326276E-01
       N       E                     dE             d eps       ncg     rms          rms(c)
DAV:   1    -0.125153143323E+03    0.13247E-04   -0.25901E-02  2187   0.331E-01    0.141E-02
DAV:   2    -0.125153192346E+03   -0.49023E-04   -0.48394E-04  2480   0.117E-01    0.126E-02
DAV:   3    -0.125153193598E+03   -0.12519E-05   -0.70999E-05  2280   0.116E-01    0.107E-02
DAV:   4    -0.125153188333E+03    0.52652E-05   -0.23036E-05  2267   0.567E-02    0.594E-03
DAV:   5    -0.125153189587E+03   -0.12534E-05   -0.13610E-05  1984   0.245E-02    0.540E-03
DAV:   6    -0.125153190038E+03   -0.45175E-06   -0.37795E-06  1544   0.163E-02
   4 F= -.12515319E+03 E0= -.12513484E+03  d E =-.326604E-01
       N       E                     dE             d eps       ncg     rms          rms(c)
DAV:   1    -0.125154244665E+03   -0.10551E-02   -0.13008E+00  2200   0.269E+00    0.827E-02
DAV:   2    -0.125156901824E+03   -0.26572E-02   -0.21973E-02  2635   0.682E-01    0.868E-02
DAV:   3    -0.125156753371E+03    0.14845E-03   -0.39670E-03  2182   0.846E-01    0.510E-02
DAV:   4    -0.125156697105E+03    0.56266E-04   -0.10234E-03  2401   0.267E-01    0.227E-02
DAV:   5    -0.125156743068E+03   -0.45963E-04   -0.46511E-04  2307   0.163E-01    0.113E-02
DAV:   6    -0.125156751997E+03   -0.89287E-05   -0.11299E-04  2163   0.994E-02    0.745E-03
DAV:   7    -0.125156755286E+03   -0.32890E-05   -0.34505E-05  2195   0.471E-02    0.567E-03
DAV:   8    -0.125156756683E+03   -0.13971E-05   -0.13822E-05  1694   0.247E-02    0.524E-03
DAV:   9    -0.125156757076E+03   -0.39296E-06   -0.36276E-06  1412   0.120E-02
   5 F= -.12515676E+03 E0= -.12513853E+03  d E =-.356704E-02
       N       E                     dE             d eps       ncg     rms          rms(c)
DAV:   1    -0.125155423851E+03    0.13328E-02   -0.15638E+00  2200   0.294E+00    0.906E-02
DAV:   2    -0.125158613593E+03   -0.31897E-02   -0.26364E-02  2632   0.751E-01    0.948E-02
DAV:   3    -0.125158437103E+03    0.17649E-03   -0.47551E-03  2187   0.923E-01    0.558E-02
DAV:   4    -0.125158377581E+03    0.59522E-04   -0.13123E-03  2457   0.285E-01    0.250E-02
DAV:   5    -0.125158434487E+03   -0.56906E-04   -0.57351E-04  2264   0.187E-01    0.127E-02
DAV:   6    -0.125158445161E+03   -0.10674E-04   -0.14181E-04  2235   0.114E-01    0.776E-03
DAV:   7    -0.125158449759E+03   -0.45976E-05   -0.48687E-05  2219   0.516E-02    0.579E-03
DAV:   8    -0.125158451457E+03   -0.16980E-05   -0.17444E-05  1702   0.281E-02    0.527E-03
DAV:   9    -0.125158451911E+03   -0.45389E-06   -0.47649E-06  1404   0.149E-02
   6 F= -.12515845E+03 E0= -.12514034E+03  d E =-.526187E-02
       N       E                     dE             d eps       ncg     rms          rms(c)
DAV:   1    -0.125158385898E+03    0.65559E-04   -0.64925E-02  2200   0.599E-01    0.191E-02
DAV:   2    -0.125158520211E+03   -0.13431E-03   -0.10888E-03  2584   0.158E-01    0.206E-02
DAV:   3    -0.125158512214E+03    0.79974E-05   -0.21966E-04  2182   0.193E-01    0.122E-02
DAV:   4    -0.125158509888E+03    0.23257E-05   -0.51917E-05  2428   0.594E-02    0.705E-03
DAV:   5    -0.125158511877E+03   -0.19897E-05   -0.22326E-05  2123   0.328E-02    0.557E-03
DAV:   6    -0.125158512246E+03   -0.36882E-06   -0.56544E-06  1483   0.226E-02
   7 F= -.12515851E+03 E0= -.12514043E+03  d E =-.532221E-02
       N       E                     dE             d eps       ncg     rms          rms(c)
DAV:   1    -0.125158654536E+03   -0.14266E-03   -0.18779E-01  2172   0.956E-01    0.279E-02
DAV:   2    -0.125158997404E+03   -0.34287E-03   -0.32831E-03  2518   0.175E-01    0.190E-02
DAV:   3    -0.125159041789E+03   -0.44385E-04   -0.23285E-04  2281   0.239E-01    0.238E-02
DAV:   4    -0.125159000569E+03    0.41221E-04   -0.55553E-05  2481   0.123E-01    0.911E-03
DAV:   5    -0.125159004064E+03   -0.34957E-05   -0.36957E-05  2803   0.347E-02    0.614E-03
DAV:   6    -0.125159004589E+03   -0.52518E-06   -0.77755E-06  1691   0.207E-02
   8 F= -.12515900E+03 E0= -.12514087E+03  d E =-.492343E-03
       N       E                     dE             d eps       ncg     rms          rms(c)
DAV:   1    -0.125157147191E+03    0.18569E-02   -0.16918E+00  2172   0.287E+00    0.819E-02
DAV:   2    -0.125160186243E+03   -0.30391E-02   -0.29600E-02  2582   0.529E-01    0.548E-02
DAV:   3    -0.125160567666E+03   -0.38142E-03   -0.19701E-03  2270   0.717E-01    0.703E-02
DAV:   4    -0.125160196872E+03    0.37079E-03   -0.48991E-04  2654   0.357E-01    0.237E-02
DAV:   5    -0.125160229048E+03   -0.32176E-04   -0.32941E-04  2438   0.113E-01    0.115E-02
DAV:   6    -0.125160237145E+03   -0.80968E-05   -0.93091E-05  2208   0.917E-02    0.716E-03
DAV:   7    -0.125160239398E+03   -0.22531E-05   -0.21741E-05  1745   0.439E-02    0.544E-03
DAV:   8    -0.125160240752E+03   -0.13537E-05   -0.14437E-05  1942   0.218E-02    0.518E-03
DAV:   9    -0.125160240982E+03   -0.23021E-06   -0.15421E-06  1145   0.839E-03
   9 F= -.12516024E+03 E0= -.12514196E+03  d E =-.172874E-02
       N       E                     dE             d eps       ncg     rms          rms(c)
DAV:   1    -0.125149172047E+03    0.11069E-01   -0.67713E+00  2172   0.576E+00    0.164E-01
DAV:   2    -0.125161360937E+03   -0.12189E-01   -0.11957E-01  2603   0.109E+00    0.108E-01
DAV:   3    -0.125162941784E+03   -0.15808E-02   -0.77119E-03  2259   0.141E+00    0.143E-01
DAV:   4    -0.125161410030E+03    0.15318E-02   -0.22407E-03  2678   0.697E-01    0.471E-02
DAV:   5    -0.125161552765E+03   -0.14274E-03   -0.14215E-03  2323   0.227E-01    0.219E-02
DAV:   6    -0.125161591398E+03   -0.38633E-04   -0.41955E-04  2227   0.200E-01    0.117E-02
DAV:   7    -0.125161599015E+03   -0.76165E-05   -0.80619E-05  2209   0.992E-02    0.619E-03
DAV:   8    -0.125161605733E+03   -0.67186E-05   -0.67921E-05  2555   0.389E-02    0.585E-03
DAV:   9    -0.125161606052E+03   -0.31893E-06   -0.33609E-06  1417   0.130E-02
  10 F= -.12516161E+03 E0= -.12514305E+03  d E =-.309381E-02
       N       E                     dE             d eps       ncg     rms          rms(c)
DAV:   1    -0.125108572496E+03    0.53033E-01   -0.27182E+01  2172   0.116E+01    0.331E-01
DAV:   2    -0.125159385973E+03   -0.50813E-01   -0.51044E-01  2584   0.221E+00    0.215E-01
DAV:   3    -0.125165928952E+03   -0.65430E-02   -0.57109E-02  2296   0.266E+00    0.289E-01
DAV:   4    -0.125159385836E+03    0.65431E-02   -0.94690E-03  2603   0.138E+00    0.935E-02
DAV:   5    -0.125159875115E+03   -0.48928E-03   -0.54013E-03  2331   0.486E-01    0.449E-02
DAV:   6    -0.125160050018E+03   -0.17490E-03   -0.19401E-03  2222   0.414E-01    0.229E-02
DAV:   7    -0.125160078622E+03   -0.28604E-04   -0.34793E-04  2219   0.213E-01    0.881E-03
DAV:   8    -0.125160105980E+03   -0.27358E-04   -0.29449E-04  2627   0.833E-02    0.779E-03
DAV:   9    -0.125160108262E+03   -0.22817E-05   -0.22418E-05  1670   0.306E-02    0.629E-03
DAV:  10    -0.125160109159E+03   -0.89702E-06   -0.46350E-06  1739   0.190E-02
  11 F= -.12516011E+03 E0= -.12514104E+03  d E =-.159691E-02
       N       E                     dE             d eps       ncg     rms          rms(c)
DAV:   1    -0.125134672831E+03    0.25435E-01   -0.13893E+01  2172   0.826E+00    0.240E-01
DAV:   2    -0.125161438326E+03   -0.26765E-01   -0.26674E-01  2532   0.153E+00    0.155E-01
DAV:   3    -0.125164835286E+03   -0.33970E-02   -0.47301E-02  2424   0.191E+00    0.204E-01
DAV:   4    -0.125161370734E+03    0.34646E-02   -0.22335E-02  2507   0.115E+00    0.684E-02
DAV:   5    -0.125161655841E+03   -0.28511E-03   -0.28261E-03  2323   0.229E-01    0.316E-02
DAV:   6    -0.125161724409E+03   -0.68568E-04   -0.59984E-04  2294   0.191E-01    0.150E-02
DAV:   7    -0.125161729887E+03   -0.54778E-05   -0.73847E-05  2275   0.129E-01    0.717E-03
DAV:   8    -0.125161737567E+03   -0.76799E-05   -0.75996E-05  2259   0.411E-02    0.595E-03
DAV:   9    -0.125161737734E+03   -0.16684E-06   -0.52178E-06  1518   0.239E-02
  12 F= -.12516174E+03 E0= -.12514302E+03  d E =-.322549E-02
       N       E                     dE             d eps       ncg     rms          rms(c)
DAV:   1    -0.125160207412E+03    0.15302E-02   -0.90783E-01  2158   0.210E+00    0.687E-02
DAV:   2    -0.125161833247E+03   -0.16258E-02   -0.16099E-02  2494   0.430E-01    0.350E-02
DAV:   3    -0.125162204269E+03   -0.37102E-03   -0.94441E-04  2390   0.512E-01    0.636E-02
DAV:   4    -0.125161874451E+03    0.32982E-03   -0.35259E-04  2729   0.350E-01    0.175E-02
DAV:   5    -0.125161896323E+03   -0.21872E-04   -0.19130E-04  2419   0.543E-02    0.867E-03
DAV:   6    -0.125161900148E+03   -0.38258E-05   -0.32152E-05  2128   0.508E-02    0.571E-03
DAV:   7    -0.125161900714E+03   -0.56520E-06   -0.37512E-06  1449   0.328E-02
  13 F= -.12516190E+03 E0= -.12514310E+03  d E =-.162980E-03
