 vasp.6.3.2 27Jun22 (build Jan 20 2026 21:31:33) complex                         
 executed on             LinuxGNU date 2026.03.20  00:28:58
 running   32 mpi-ranks, with    1 threads/rank
 distrk:  each k-point on    8 cores,    4 groups
 distr:  one band on NCORE=   8 cores,    1 groups


--------------------------------------------------------------------------------------------------------


 INCAR:
   KPAR = 4
   NCORE = 8
   ISTART = 0            (Read existing wavefunction, if there)
   ISPIN = 1            (Non-Spin polarised DFT)
   ENCUT = 400          (Cut-off energy for plane wave basis set, in eV)
   LWAVE = .FALSE.       (Write WAVECAR or not)
   LCHARG = .FALSE.       (Write CHGCAR or not)
   ADDGRID = .TRUE.        (Increase grid, helps GGA convergence)
   LREAL = Auto
   LDIPOL = .TRUE.
   IDIPOL = 3
   ISMEAR = 0            (Gaussian smearing, metals:1)
   SIGMA = 0.05         (Smearing value in eV, metals:0.2)
   NELM = 90           (Max electronic SCF steps)
   NELMIN = 6            (Min electronic SCF steps)
   EDIFF = 1E-06        (SCF energy convergence, in eV)
   NSW = 100          (Max ionic steps)
   IBRION = 2            (Algorithm: 0-MD, 1-Quasi-New, 2-CG)
   ISIF = 2            (Stress/relaxation: 2-Ions, 3-Shape/Ions/V, 4-Shape/Ions)
   EDIFFG = -2E-02        (Ionic convergence, eV/AA)

 POTCAR:    PAW_PBE Ge_d 03Jul2007                
 POTCAR:    PAW_PBE H 15Jun2001                   
 POTCAR:    PAW_PBE Ge_d 03Jul2007                
   VRHFIN =Ge: 3d4s4p                                                                               
   LEXCH  = PE                                                                                      
   EATOM  =  2596.2402 eV,  190.8183 Ry                                                             
                                                                                                    
   TITEL  = PAW_PBE Ge_d 03Jul2007                                                                  
   LULTRA =        F    use ultrasoft PP ?                                                          
   IUNSCR =        1    unscreen: 0-lin 1-nonlin 2-no                                               
   RPACOR =    2.000    partial core radius                                                         
   POMASS =   72.610; ZVAL   =   14.000    mass and valenz                                          
   RCORE  =    2.300    outmost cutoff radius                                                       
   RWIGS  =    2.300; RWIGS  =    1.217    wigner-seitz radius (au A)                               
   ENMAX  =  310.294; ENMIN  =  232.720 eV                                                          
   ICORE  =        3    local potential                                                             
   LCOR   =        T    correct aug charges                                                         
   LPAW   =        T    paw PP                                                                      
   EAUG   =  531.356                                                                                
   DEXC   =    0.000                                                                                
   RMAX   =    2.342    core radius for proj-oper                                                   
   RAUG   =    1.300    factor for augmentation sphere                                              
   RDEP   =    2.318    radius for radial grids                                                     
   RDEPT  =    1.783    core radius for aug-charge                                                  
                                                                                                    
   Atomic configuration                                                                             
    9 entries                                                                                       
     n  l   j            E        occ.                                                              
     1  0  0.50    -10959.8463   2.0000                                                             
     2  0  0.50     -1371.6056   2.0000                                                             
     2  1  1.50     -1198.4791   6.0000                                                             
     3  0  0.50      -168.4733   2.0000                                                             
     3  1  1.50      -115.6019   6.0000                                                             
     3  2  2.50       -29.3106  10.0000                                                             
     4  0  0.50       -11.7309   2.0000                                                             
     4  1  0.50        -3.8952   2.0000                                                             
     4  3  2.50        -4.0817   0.0000                                                             
   Description                                                                                      
     l       E           TYP  RCUT    TYP  RCUT                                                     
     2    -29.3105938     23  2.200                                                                 
     2    -13.6058260     23  2.200                                                                 
     0    -11.7309493     23  2.300                                                                 
     0     -7.4578696     23  2.300                                                                 
     1     -3.8952261     23  2.300                                                                 
     1      6.1178114     23  2.300                                                                 
     3     -1.3605826     23  2.300                                                                 
  local pseudopotential read in
  partial core-charges read in
  partial kinetic energy density read in
  atomic valenz-charges read in
  non local Contribution for L=           2  read in
    real space projection operators read in
  non local Contribution for L=           2  read in
    real space projection operators read in
  non local Contribution for L=           0  read in
    real space projection operators read in
  non local Contribution for L=           0  read in
    real space projection operators read in
  non local Contribution for L=           1  read in
    real space projection operators read in
  non local Contribution for L=           1  read in
    real space projection operators read in
    PAW grid and wavefunctions read in

   number of l-projection  operators is LMAX  =           6
   number of lm-projection operators is LMMAX =          18

 POTCAR:    PAW_PBE H 15Jun2001                   
   VRHFIN =H: ultrasoft test                                                                        
   LEXCH  = PE                                                                                      
   EATOM  =    12.4884 eV,    0.9179 Ry                                                             
                                                                                                    
   TITEL  = PAW_PBE H 15Jun2001                                                                     
   LULTRA =        F    use ultrasoft PP ?                                                          
   IUNSCR =        0    unscreen: 0-lin 1-nonlin 2-no                                               
   RPACOR =    0.000    partial core radius                                                         
   POMASS =    1.000; ZVAL   =    1.000    mass and valenz                                          
   RCORE  =    1.100    outmost cutoff radius                                                       
   RWIGS  =    0.700; RWIGS  =    0.370    wigner-seitz radius (au A)                               
   ENMAX  =  250.000; ENMIN  =  200.000 eV                                                          
   RCLOC  =    0.701    cutoff for local pot                                                        
   LCOR   =        T    correct aug charges                                                         
   LPAW   =        T    paw PP                                                                      
   EAUG   =  400.000                                                                                
   RMAX   =    1.123    core radius for proj-oper                                                   
   RAUG   =    1.200    factor for augmentation sphere                                              
   RDEP   =    1.112    radius for radial grids                                                     
   RDEPT  =    0.926    core radius for aug-charge                                                  
                                                                                                    
   Atomic configuration                                                                             
    2 entries                                                                                       
     n  l   j            E        occ.                                                              
     1  0  0.50        -6.4927   1.0000                                                             
     2  1  0.50        -3.4015   0.0000                                                             
   Description                                                                                      
     l       E           TYP  RCUT    TYP  RCUT                                                     
     0     -6.4927494     23  1.100                                                                 
     0      6.8029130     23  1.100                                                                 
     1     -4.0817478     23  1.100                                                                 
  local pseudopotential read in
  atomic valenz-charges read in
  non local Contribution for L=           0  read in
    real space projection operators read in
  non local Contribution for L=           0  read in
    real space projection operators read in
  non local Contribution for L=           1  read in
    real space projection operators read in
    PAW grid and wavefunctions read in

   number of l-projection  operators is LMAX  =           3
   number of lm-projection operators is LMMAX =           5

 Optimization of the real space projectors (new method)

 maximal supplied QI-value         = 16.25
 optimisation between [QCUT,QGAM] = [ 10.24, 20.48] = [ 29.35,117.42] Ry 
 Optimized for a Real-space Cutoff    1.55 Angstroem

   l    n(q)    QCUT    max X(q) W(low)/X(q) W(high)/X(q)  e(spline) 
   2      9    10.239     8.936    0.12E-03    0.40E-03    0.20E-06
   2      9    10.239     8.183    0.16E-03    0.51E-03    0.28E-06
   0     10    10.239    62.777    0.65E-04    0.49E-04    0.95E-07
   0     10    10.239    50.556    0.62E-04    0.48E-04    0.93E-07
   1      9    10.239    38.422    0.96E-04    0.27E-04    0.11E-06
   1      9    10.239    22.623    0.91E-04    0.26E-04    0.10E-06
 Optimization of the real space projectors (new method)

 maximal supplied QI-value         = 34.20
 optimisation between [QCUT,QGAM] = [  9.92, 20.18] = [ 27.55,114.04] Ry 
 Optimized for a Real-space Cutoff    1.26 Angstroem

   l    n(q)    QCUT    max X(q) W(low)/X(q) W(high)/X(q)  e(spline) 
   0      8     9.919    19.460    0.50E-03    0.23E-03    0.29E-06
   0      8     9.919    12.209    0.48E-03    0.23E-03    0.28E-06
   1      7     9.919     4.655    0.17E-03    0.75E-03    0.30E-06
  PAW_PBE Ge_d 03Jul2007                :
 energy of atom  1       EATOM=-2596.2402
 kinetic energy error for atom=    0.0173 (will be added to EATOM!!)
  PAW_PBE H 15Jun2001                   :
 energy of atom  2       EATOM=  -12.4884
 kinetic energy error for atom=    0.0098 (will be added to EATOM!!)


 POSCAR: Converted by xsd2pos.py
  positions in direct lattice
  No initial velocities read in
 exchange correlation table for  LEXCH =        8
   RHO(1)=    0.500       N(1)  =     2000
   RHO(2)=  100.500       N(2)  =     4000



--------------------------------------------------------------------------------------------------------


 ion  position               nearest neighbor table
   1  0.000  0.000  0.057-   6 2.49  20 2.49
   2  0.000  0.000  0.287-   7 2.49  21 2.49  12 2.49   5 2.49
   3  0.250  0.250  0.172-   5 2.49  19 2.49  13 2.49   6 2.49
   4  0.250  0.250  0.401-   7 2.49  14 2.49
   5  0.250  0.000  0.229-   3 2.49  17 2.49   9 2.49   2 2.49
   6  0.000  0.250  0.115-   1 2.49  15 2.49  10 2.49   3 2.49
   7  0.000  0.250  0.344-   2 2.49  16 2.49  11 2.49   4 2.49
   8  0.500  0.000  0.057-  13 2.49  27 2.49
   9  0.500  0.000  0.287-  14 2.49  28 2.49   5 2.49  12 2.49
  10  0.750  0.250  0.172-  12 2.49  26 2.49  13 2.49   6 2.49
  11  0.750  0.250  0.401-   7 2.49  14 2.49
  12  0.750  0.000  0.229-  10 2.49  24 2.49   2 2.49   9 2.49
  13  0.500  0.250  0.115-   8 2.49  22 2.49  10 2.49   3 2.49
  14  0.500  0.250  0.344-   9 2.49  23 2.49  11 2.49   4 2.49
  15  0.000  0.500  0.057-   6 2.49  20 2.49
  16  0.000  0.500  0.287-   7 2.49  21 2.49  19 2.49  26 2.49
  17  0.250  0.750  0.172-   5 2.49  19 2.49  20 2.49  27 2.49
  18  0.250  0.750  0.401-  21 2.49  28 2.49
  19  0.250  0.500  0.229-   3 2.49  17 2.49  16 2.49  23 2.49
  20  0.000  0.750  0.115-   1 2.49  15 2.49  17 2.49  24 2.49
  21  0.000  0.750  0.344-   2 2.49  16 2.49  18 2.49  25 2.49
  22  0.500  0.500  0.057-  13 2.49  27 2.49
  23  0.500  0.500  0.287-  14 2.49  28 2.49  26 2.49  19 2.49
  24  0.750  0.750  0.172-  12 2.49  26 2.49  20 2.49  27 2.49
  25  0.750  0.750  0.401-  21 2.49  28 2.49
  26  0.750  0.500  0.229-  10 2.49  24 2.49  23 2.49  16 2.49
  27  0.500  0.750  0.115-   8 2.49  22 2.49  17 2.49  24 2.49
  28  0.500  0.750  0.344-   9 2.49  23 2.49  18 2.49  25 2.49
  29  0.250  0.000  0.000-
  30  0.750  0.000  0.000-
  31  0.250  0.500  0.000-
  32  0.750  0.500  0.000-

  LATTYP: Found a simple tetragonal cell.
 ALAT       =     8.1246569200
 C/A-ratio  =     3.0836686702
  
  Lattice vectors:
  
 A1 = (   8.1246569200,   0.0000000000,   0.0000000000)
 A2 = (   0.0000000000,   8.1246569200,   0.0000000000)
 A3 = (   0.0000000000,   0.0000000000,  25.0537500000)


Analysis of symmetry for initial positions (statically):
=====================================================================
 Subroutine PRICEL returns following result:
 
  LATTYP: Found a simple tetragonal cell.
 ALAT       =     4.0623284600
 C/A-ratio  =     6.1673373403
  
  Lattice vectors:
  
 A1 = (   4.0623284600,   0.0000000000,   0.0000000000)
 A2 = (   0.0000000000,   4.0623284600,   0.0000000000)
 A3 = (   0.0000000000,   0.0000000000,  25.0537500000)
 
   4 primitive cells build up your supercell.
 

 Routine SETGRP: Setting up the symmetry group for a 
 simple tetragonal supercell.


 Subroutine GETGRP returns: Found  4 space group operations
 (whereof  4 operations were pure point group operations)
 out of a pool of 16 trial point group operations.


The static configuration has the point symmetry C_2v.


Analysis of symmetry for dynamics (positions and initial velocities):
=====================================================================
 Subroutine PRICEL returns following result:
 
  LATTYP: Found a simple tetragonal cell.
 ALAT       =     4.0623284600
 C/A-ratio  =     6.1673373403
  
  Lattice vectors:
  
 A1 = (   4.0623284600,   0.0000000000,   0.0000000000)
 A2 = (   0.0000000000,   4.0623284600,   0.0000000000)
 A3 = (   0.0000000000,   0.0000000000,  25.0537500000)
 
   4 primitive cells build up your supercell.
 

 Routine SETGRP: Setting up the symmetry group for a 
 simple tetragonal supercell.


 Subroutine GETGRP returns: Found  4 space group operations
 (whereof  4 operations were pure point group operations)
 out of a pool of 16 trial point group operations.


The dynamic configuration has the point symmetry C_2v.


Analysis of constrained symmetry for selective dynamics:
=====================================================================
 Subroutine PRICEL returns following result:
 
  LATTYP: Found a simple tetragonal cell.
 ALAT       =     4.0623284600
 C/A-ratio  =     6.1673373403
  
  Lattice vectors:
  
 A1 = (   4.0623284600,   0.0000000000,   0.0000000000)
 A2 = (   0.0000000000,   4.0623284600,   0.0000000000)
 A3 = (   0.0000000000,   0.0000000000,  25.0537500000)
 
   4 primitive cells build up your supercell.
 

 Routine SETGRP: Setting up the symmetry group for a 
 simple tetragonal supercell.


 Subroutine GETGRP returns: Found  4 space group operations
 (whereof  4 operations were pure point group operations)
 out of a pool of 16 trial point group operations.


The constrained configuration has the point symmetry C_2v.


 Subroutine INISYM returns: Found  4 space group operations
 (whereof  4 operations are pure point group operations),
 and found     4 'primitive' translations


----------------------------------------------------------------------------------------

                                     Primitive cell                                     

  volume of cell :     413.4498

  direct lattice vectors                    reciprocal lattice vectors
     4.062328460  0.000000000  0.000000000     0.246164240  0.000000000  0.000000000
     0.000000000  4.062328460  0.000000000     0.000000000  0.246164240  0.000000000
     0.000000000  0.000000000 25.053750000     0.000000000  0.000000000  0.039914185

  length of vectors
     4.062328460  4.062328460 25.053750000     0.246164240  0.246164240  0.039914185

  position of ions in fractional coordinates (direct lattice)
     0.000000000  0.000000000  0.057326750
     0.000000000  0.000000000  0.286633740
     0.500000000  0.500000000  0.171980240
     0.500000000  0.500000000  0.401287230
     0.500000000  0.000000000  0.229306990
     0.000000000  0.500000000  0.114653490
     0.000000000  0.500000000  0.343960480
     0.500000000  0.000000000  0.000000000

  ion indices of the primitive-cell ions
   primitive index   ion index
                 1           1
                 2           2
                 3           3
                 4           4
                 5           5
                 6           6
                 7           7
                 8          29

----------------------------------------------------------------------------------------



 KPOINTS: K-Spacing Value to Generate K-Mesh: 0.04

Automatic generation of k-mesh.
 Grid dimensions read from file:
 generate k-points for:    3    3    1

 Generating k-lattice:

  Cartesian coordinates                     Fractional coordinates (reciprocal lattice)
     0.041027373  0.000000000  0.000000000     0.333333333  0.000000000  0.000000000
     0.000000000  0.041027373  0.000000000     0.000000000  0.333333333  0.000000000
     0.000000000  0.000000000  0.039914185     0.000000000  0.000000000  1.000000000

  Length of vectors
     0.041027373  0.041027373  0.039914185

  Shift w.r.t. Gamma in fractional coordinates (k-lattice)
     0.000000000  0.000000000  0.000000000

 
 Subroutine IBZKPT returns following result:
 ===========================================
 
 Found      4 irreducible k-points:
 
 Following reciprocal coordinates:
            Coordinates               Weight
  0.000000  0.000000  0.000000      1.000000
  0.333333  0.000000  0.000000      2.000000
  0.000000  0.333333  0.000000      2.000000
  0.333333  0.333333  0.000000      4.000000
 
 Following cartesian coordinates:
            Coordinates               Weight
  0.000000  0.000000  0.000000      1.000000
  0.041027  0.000000  0.000000      2.000000
  0.000000  0.041027  0.000000      2.000000
  0.041027  0.041027  0.000000      4.000000
 


--------------------------------------------------------------------------------------------------------




 Dimension of arrays:
   k-points           NKPTS =      4   k-points in BZ     NKDIM =      4   number of bands    NBANDS=    237
   number of dos      NEDOS =    301   number of ions     NIONS =     32
   non local maximal  LDIM  =      6   non local SUM 2l+1 LMDIM =     18
   total plane-waves  NPLWV = 201600
   max r-space proj   IRMAX =   1965   max aug-charges    IRDMAX=  32993
   dimension x,y,z NGX =    40 NGY =   40 NGZ =  126
   dimension x,y,z NGXF=    80 NGYF=   80 NGZF=  252
   support grid    NGXF=   160 NGYF=  160 NGZF=  504
   ions per type =              28   4
   NGX,Y,Z   is equivalent  to a cutoff of   8.18,  8.18,  8.36 a.u.
   NGXF,Y,Z  is equivalent  to a cutoff of  16.37, 16.37, 16.72 a.u.

 SYSTEM =  unknown system                          
 POSCAR =  Converted by xsd2pos.py                 

 Startparameter for this run:
   NWRITE =      2    write-flag & timer
   PREC   = normal    normal or accurate (medium, high low for compatibility)
   ISTART =      0    job   : 0-new  1-cont  2-samecut
   ICHARG =      2    charge: 1-file 2-atom 10-const
   ISPIN  =      1    spin polarized calculation?
   LNONCOLLINEAR =      F non collinear calculations
   LSORBIT =      F    spin-orbit coupling
   INIWAV =      1    electr: 0-lowe 1-rand  2-diag
   LASPH  =      F    aspherical Exc in radial PAW
 Electronic Relaxation 1
   ENCUT  =  400.0 eV  29.40 Ry    5.42 a.u.  13.25 13.25 40.86*2*pi/ulx,y,z
   ENINI  =  400.0     initial cutoff
   ENAUG  =  531.4 eV  augmentation charge cutoff
   NELM   =     90;   NELMIN=  6; NELMDL= -5     # of ELM steps 
   EDIFF  = 0.1E-05   stopping-criterion for ELM
   LREAL  =      T    real-space projection
   NLSPLINE    = F    spline interpolate recip. space projectors
   LCOMPAT=      F    compatible to vasp.4.4
   GGA_COMPAT  = T    GGA compatible to vasp.4.4-vasp.4.6
   LMAXPAW     = -100 max onsite density
   LMAXMIX     =    2 max onsite mixed and CHGCAR
   VOSKOWN=      0    Vosko Wilk Nusair interpolation
   ROPT   =   -0.00050  -0.00050
 Ionic relaxation
   EDIFFG = -.2E-01   stopping-criterion for IOM
   NSW    =    100    number of steps for IOM
   NBLOCK =      1;   KBLOCK =    100    inner block; outer block 
   IBRION =      2    ionic relax: 0-MD 1-quasi-New 2-CG
   NFREE  =      1    steps in history (QN), initial steepest desc. (CG)
   ISIF   =      2    stress and relaxation
   IWAVPR =     11    prediction:  0-non 1-charg 2-wave 3-comb
   ISYM   =      2    0-nonsym 1-usesym 2-fastsym
   LCORR  =      T    Harris-Foulkes like correction to forces

   POTIM  = 0.5000    time-step for ionic-motion
   TEIN   =    0.0    initial temperature
   TEBEG  =    0.0;   TEEND  =   0.0 temperature during run
   SMASS  =  -3.00    Nose mass-parameter (am)
   estimated Nose-frequenzy (Omega)   =  0.10E-29 period in steps = 0.13E+47 mass=  -0.151E-26a.u.
   SCALEE = 1.0000    scale energy and forces
   NPACO  =    256;   APACO  = 10.0  distance and # of slots for P.C.
   PSTRESS=    0.0 pullay stress

  Mass of Ions in am
   POMASS =  72.61  1.00
  Ionic Valenz
   ZVAL   =  14.00  1.00
  Atomic Wigner-Seitz radii
   RWIGS  =  -1.00 -1.00
  virtual crystal weights 
   VCA    =   1.00  1.00
   NELECT =     396.0000    total number of electrons
   NUPDOWN=      -1.0000    fix difference up-down

 DOS related values:
   EMIN   =  10.00;   EMAX   =-10.00  energy-range for DOS
   EFERMI =   0.00
   ISMEAR =     0;   SIGMA  =   0.05  broadening in eV -4-tet -1-fermi 0-gaus

 Electronic relaxation 2 (details)
   IALGO  =     38    algorithm
   LDIAG  =      T    sub-space diagonalisation (order eigenvalues)
   LSUBROT=      F    optimize rotation matrix (better conditioning)
   TURBO    =      0    0=normal 1=particle mesh
   IRESTART =      0    0=no restart 2=restart with 2 vectors
   NREBOOT  =      0    no. of reboots
   NMIN     =      0    reboot dimension
   EREF     =   0.00    reference energy to select bands
   IMIX   =      4    mixing-type and parameters
     AMIX     =   0.40;   BMIX     =  1.00
     AMIX_MAG =   1.60;   BMIX_MAG =  1.00
     AMIN     =   0.10
     WC   =   100.;   INIMIX=   1;  MIXPRE=   1;  MAXMIX= -45

 Intra band minimization:
   WEIMIN = 0.0010     energy-eigenvalue tresh-hold
   EBREAK =  0.11E-08  absolut break condition
   DEPER  =   0.30     relativ break condition  

   TIME   =   0.40     timestep for ELM

  volume/ion in A,a.u.               =      51.68       348.76
  Fermi-wavevector in a.u.,A,eV,Ry     =   1.016590  1.921076 14.060999  1.033454
  Thomas-Fermi vector in A             =   2.149942

 Write flags
   LWAVE        =      F    write WAVECAR
   LDOWNSAMPLE  =      F    k-point downsampling of WAVECAR
   LCHARG       =      F    write CHGCAR
   LVTOT        =      F    write LOCPOT, total local potential
   LVHAR        =      F    write LOCPOT, Hartree potential only
   LELF         =      F    write electronic localiz. function (ELF)
   LORBIT       =      0    0 simple, 1 ext, 2 COOP (PROOUT), +10 PAW based schemes


 Dipole corrections
   LMONO  =      F    monopole corrections only (constant potential shift)
   LDIPOL =      T    correct potential (dipole corrections)
   IDIPOL =      3    1-x, 2-y, 3-z, 4-all directions 
   EPSILON=  1.0000000 bulk dielectric constant

 Exchange correlation treatment:
   GGA     =    --    GGA type
   LEXCH   =     8    internal setting for exchange type
   LIBXC   =     F    Libxc                    
   VOSKOWN =     0    Vosko Wilk Nusair interpolation
   LHFCALC =     F    Hartree Fock is set to
   LHFONE  =     F    Hartree Fock one center treatment
   AEXX    =    0.0000 exact exchange contribution

 Linear response parameters
   LEPSILON=     F    determine dielectric tensor
   LRPA    =     F    only Hartree local field effects (RPA)
   LNABLA  =     F    use nabla operator in PAW spheres
   LVEL    =     F    velocity operator in full k-point grid
   CSHIFT  =0.1000    complex shift for real part using Kramers Kronig
   OMEGAMAX=  -1.0    maximum frequency
   DEG_THRESHOLD= 0.2000000E-02 threshold for treating states as degnerate
   RTIME   =   -0.100 relaxation time in fs
  (WPLASMAI=    0.000 imaginary part of plasma frequency in eV, 0.658/RTIME)
   DFIELD  = 0.0000000 0.0000000 0.0000000 field for delta impulse in time

  Optional k-point grid parameters
   LKPOINTS_OPT  =     F    use optional k-point grid
   KPOINTS_OPT_MODE=     1    mode for optional k-point grid

 Orbital magnetization related:
   ORBITALMAG=     F  switch on orbital magnetization
   LCHIMAG   =     F  perturbation theory with respect to B field
   DQ        =  0.001000  dq finite difference perturbation B field
   LLRAUG    =     F  two centre corrections for induced B field



--------------------------------------------------------------------------------------------------------


 conjugate gradient relaxation of ions
   using selective dynamics as specified on POSCAR
 charge density and potential will be updated during run
 non-spin polarized calculation
 Variant of blocked Davidson
 Davidson routine will perform the subspace rotation
 perform sub-space diagonalisation
    after iterative eigenvector-optimisation
 modified Broyden-mixing scheme, WC =      100.0
 initial mixing is a Kerker type mixing with AMIX =  0.4000 and BMIX =      1.0000
 Hartree-type preconditioning will be used
 using additional bands           39
 real space projection scheme for non local part
 use partial core corrections
 calculate Harris-corrections to forces   (improved forces if not selfconsistent)
 use gradient corrections 
 use of overlap-Matrix (Vanderbilt PP)
 Gauss-broadening in eV      SIGMA  =   0.05


--------------------------------------------------------------------------------------------------------


  energy-cutoff  :      400.00
  volume of cell :     1653.80
      direct lattice vectors                 reciprocal lattice vectors
     8.124656920  0.000000000  0.000000000     0.123082120  0.000000000  0.000000000
     0.000000000  8.124656920  0.000000000     0.000000000  0.123082120  0.000000000
     0.000000000  0.000000000 25.053750000     0.000000000  0.000000000  0.039914185

  length of vectors
     8.124656920  8.124656920 25.053750000     0.123082120  0.123082120  0.039914185



 k-points in units of 2pi/SCALE and weight: K-Spacing Value to Generate K-Mesh: 0.04
   0.00000000  0.00000000  0.00000000       0.111
   0.04102737  0.00000000  0.00000000       0.222
   0.00000000  0.04102737  0.00000000       0.222
   0.04102737  0.04102737  0.00000000       0.444

 k-points in reciprocal lattice and weights: K-Spacing Value to Generate K-Mesh: 0.04
   0.00000000  0.00000000  0.00000000       0.111
   0.33333333  0.00000000  0.00000000       0.222
   0.00000000  0.33333333  0.00000000       0.222
   0.33333333  0.33333333  0.00000000       0.444

 position of ions in fractional coordinates (direct lattice) 
   0.00000000  0.00000000  0.05732675
   0.00000000  0.00000000  0.28663374
   0.25000000  0.25000000  0.17198024
   0.25000000  0.25000000  0.40128723
   0.25000000  0.00000000  0.22930699
   0.00000000  0.25000000  0.11465349
   0.00000000  0.25000000  0.34396048
   0.50000000  0.00000000  0.05732675
   0.50000000  0.00000000  0.28663374
   0.75000000  0.25000000  0.17198024
   0.75000000  0.25000000  0.40128723
   0.75000000  0.00000000  0.22930699
   0.50000000  0.25000000  0.11465349
   0.50000000  0.25000000  0.34396048
   0.00000000  0.50000000  0.05732675
   0.00000000  0.50000000  0.28663374
   0.25000000  0.75000000  0.17198024
   0.25000000  0.75000000  0.40128723
   0.25000000  0.50000000  0.22930699
   0.00000000  0.75000000  0.11465349
   0.00000000  0.75000000  0.34396048
   0.50000000  0.50000000  0.05732675
   0.50000000  0.50000000  0.28663374
   0.75000000  0.75000000  0.17198024
   0.75000000  0.75000000  0.40128723
   0.75000000  0.50000000  0.22930699
   0.50000000  0.75000000  0.11465349
   0.50000000  0.75000000  0.34396048
   0.25000000  0.00000000  0.00000000
   0.75000000  0.00000000  0.00000000
   0.25000000  0.50000000  0.00000000
   0.75000000  0.50000000  0.00000000

 position of ions in cartesian coordinates  (Angst):
   0.00000000  0.00000000  1.43625006
   0.00000000  0.00000000  7.18125006
   2.03116423  2.03116423  4.30874994
   2.03116423  2.03116423 10.05374994
   2.03116423  0.00000000  5.74500000
   0.00000000  2.03116423  2.87249988
   0.00000000  2.03116423  8.61749988
   4.06232846  0.00000000  1.43625006
   4.06232846  0.00000000  7.18125006
   6.09349269  2.03116423  4.30874994
   6.09349269  2.03116423 10.05374994
   6.09349269  0.00000000  5.74500000
   4.06232846  2.03116423  2.87249988
   4.06232846  2.03116423  8.61749988
   0.00000000  4.06232846  1.43625006
   0.00000000  4.06232846  7.18125006
   2.03116423  6.09349269  4.30874994
   2.03116423  6.09349269 10.05374994
   2.03116423  4.06232846  5.74500000
   0.00000000  6.09349269  2.87249988
   0.00000000  6.09349269  8.61749988
   4.06232846  4.06232846  1.43625006
   4.06232846  4.06232846  7.18125006
   6.09349269  6.09349269  4.30874994
   6.09349269  6.09349269 10.05374994
   6.09349269  4.06232846  5.74500000
   4.06232846  6.09349269  2.87249988
   4.06232846  6.09349269  8.61749988
   2.03116423  0.00000000  0.00000000
   6.09349269  0.00000000  0.00000000
   2.03116423  4.06232846  0.00000000
   6.09349269  4.06232846  0.00000000



--------------------------------------------------------------------------------------------------------


 k-point   1 :   0.0000 0.0000 0.0000  plane waves:   30057
 k-point   2 :   0.3333 0.0000 0.0000  plane waves:   30028
 k-point   3 :   0.0000 0.3333 0.0000  plane waves:   30028
 k-point   4 :   0.3333 0.3333 0.0000  plane waves:   30027

 maximum and minimum number of plane-waves per node :      3778     3721

 maximum number of plane-waves:     30057
 maximum index in each direction: 
   IXMAX=   13   IYMAX=   13   IZMAX=   40
   IXMIN=  -13   IYMIN=  -13   IZMIN=  -40


 real space projection operators:
  total allocation   :       7508.34 KBytes
  max/ min on nodes  :        946.39        935.81


 parallel 3D FFT for wavefunctions:
    minimum data exchange during FFTs selected (reduces bandwidth)
 parallel 3D FFT for charge:
    minimum data exchange during FFTs selected (reduces bandwidth)


 total amount of memory used by VASP MPI-rank0   133161. kBytes
=======================================================================

   base      :      30000. kBytes
   nonlr-proj:       2205. kBytes
   fftplans  :      30240. kBytes
   grid      :      12364. kBytes
   one-center:         62. kBytes
   wavefun   :      58290. kBytes

     INWAV:  cpu time      0.0000: real time      0.0000
 Broyden mixing: mesh for mixing (old mesh)
   NGX = 27   NGY = 27   NGZ = 81
  (NGX  = 80   NGY  = 80   NGZ  =252)
  gives a total of  59049 points

 initial charge density was supplied:
 charge density of overlapping atoms calculated
 number of electron     396.0000000 magnetization 
 keeping initial charge density in first step


--------------------------------------------------------------------------------------------------------


 Maximum index for non-local projection operator          274
 Maximum index for augmentation-charges         4068 (set IRDMAX)


--------------------------------------------------------------------------------------------------------


 First call to EWALD:  gamma=   0.150
 Maximum number of real-space cells 4x 4x 2
 Maximum number of reciprocal cells 2x 2x 5

    FEWALD:  cpu time      0.0020: real time      0.0020


--------------------------------------- Iteration      1(   1)  ---------------------------------------


    POTLOK:  cpu time      0.1897: real time      0.1897
    SETDIJ:  cpu time      0.1727: real time      0.1727
     EDDAV:  cpu time      3.9510: real time      3.9511
       DOS:  cpu time      0.0008: real time      0.0008
    --------------------------------------------
      LOOP:  cpu time      4.3142: real time      4.3144

 eigenvalue-minimisations  :  2157
 total energy-change (2. order) : 0.4663106E+04  (-0.1685676E+05)
 number of electron     396.0000000 magnetization 
 augmentation part      396.0000000 magnetization 

 DIPCOR: dipole corrections for dipol
 direction  3 min pos   191,
 dipolmoment           0.000000      0.000000      0.000333 electrons x Angstroem
 Tr[quadrupol]     -4891.094367

 energy correction for charged system         0.000000 eV
 dipol+quadrupol energy correction           -0.000000 eV
 added-field ion interaction          0.009751 eV  (added to PSCEN)


 Free energy of the ion-electron system (eV)
  ---------------------------------------------------
  alpha Z        PSCENC =       703.88132021
  Ewald energy   TEWEN  =    123389.01520696
  -Hartree energ DENC   =   -178749.45553733
  -exchange      EXHF   =         0.00000000
  -V(xc)+E(xc)   XCENC  =      2043.48083480
  PAW double counting   =     51433.77945331   -63612.77725151
  entropy T*S    EENTRO =        -0.00000002
  eigenvalues    EBANDS =     -3288.97459477
  atomic energy  EATOM  =     72744.15634917
  Solvation  Ediel_sol  =         0.00000000
  ---------------------------------------------------
  free energy    TOTEN  =      4663.10578082 eV

  energy without entropy =     4663.10578084  energy(sigma->0) =     4663.10578083


--------------------------------------------------------------------------------------------------------




--------------------------------------- Iteration      1(   2)  ---------------------------------------


     EDDAV:  cpu time      4.0437: real time      4.0438
       DOS:  cpu time      0.0014: real time      0.0014
    --------------------------------------------
      LOOP:  cpu time      4.0451: real time      4.0452

 eigenvalue-minimisations  :  2280
 total energy-change (2. order) :-0.3800352E+04  (-0.3687795E+04)
 number of electron     396.0000000 magnetization 
 augmentation part      396.0000000 magnetization 

 DIPCOR: dipole corrections for dipol
 direction  3 min pos   191,
 dipolmoment           0.000000      0.000000      0.000333 electrons x Angstroem
 Tr[quadrupol]     -4891.094367

 energy correction for charged system         0.000000 eV
 dipol+quadrupol energy correction           -0.000000 eV
 added-field ion interaction          0.009751 eV  (added to PSCEN)


 Free energy of the ion-electron system (eV)
  ---------------------------------------------------
  alpha Z        PSCENC =       703.88132021
  Ewald energy   TEWEN  =    123389.01520696
  -Hartree energ DENC   =   -178749.45553733
  -exchange      EXHF   =         0.00000000
  -V(xc)+E(xc)   XCENC  =      2043.48083480
  PAW double counting   =     51433.77945331   -63612.77725151
  entropy T*S    EENTRO =        -0.00829641
  eigenvalues    EBANDS =     -7089.31793339
  atomic energy  EATOM  =     72744.15634917
  Solvation  Ediel_sol  =         0.00000000
  ---------------------------------------------------
  free energy    TOTEN  =       862.75414581 eV

  energy without entropy =      862.76244222  energy(sigma->0) =      862.75829401


--------------------------------------------------------------------------------------------------------




--------------------------------------- Iteration      1(   3)  ---------------------------------------


     EDDAV:  cpu time      4.1739: real time      4.1742
       DOS:  cpu time      0.0011: real time      0.0011
    --------------------------------------------
      LOOP:  cpu time      4.1750: real time      4.1753

 eigenvalue-minimisations  :  2396
 total energy-change (2. order) :-0.8865408E+03  (-0.8540012E+03)
 number of electron     396.0000000 magnetization 
 augmentation part      396.0000000 magnetization 

 DIPCOR: dipole corrections for dipol
 direction  3 min pos   191,
 dipolmoment           0.000000      0.000000      0.000333 electrons x Angstroem
 Tr[quadrupol]     -4891.094367

 energy correction for charged system         0.000000 eV
 dipol+quadrupol energy correction           -0.000000 eV
 added-field ion interaction          0.009751 eV  (added to PSCEN)


 Free energy of the ion-electron system (eV)
  ---------------------------------------------------
  alpha Z        PSCENC =       703.88132021
  Ewald energy   TEWEN  =    123389.01520696
  -Hartree energ DENC   =   -178749.45553733
  -exchange      EXHF   =         0.00000000
  -V(xc)+E(xc)   XCENC  =      2043.48083480
  PAW double counting   =     51433.77945331   -63612.77725151
  entropy T*S    EENTRO =        -0.01615708
  eigenvalues    EBANDS =     -7975.85087804
  atomic energy  EATOM  =     72744.15634917
  Solvation  Ediel_sol  =         0.00000000
  ---------------------------------------------------
  free energy    TOTEN  =       -23.78665952 eV

  energy without entropy =      -23.77050243  energy(sigma->0) =      -23.77858097


--------------------------------------------------------------------------------------------------------




--------------------------------------- Iteration      1(   4)  ---------------------------------------


     EDDAV:  cpu time      4.1292: real time      4.1297
       DOS:  cpu time      0.0027: real time      0.0027
    --------------------------------------------
      LOOP:  cpu time      4.1319: real time      4.1323

 eigenvalue-minimisations  :  2336
 total energy-change (2. order) :-0.9849201E+02  (-0.9654513E+02)
 number of electron     396.0000000 magnetization 
 augmentation part      396.0000000 magnetization 

 DIPCOR: dipole corrections for dipol
 direction  3 min pos   191,
 dipolmoment           0.000000      0.000000      0.000333 electrons x Angstroem
 Tr[quadrupol]     -4891.094367

 energy correction for charged system         0.000000 eV
 dipol+quadrupol energy correction           -0.000000 eV
 added-field ion interaction          0.009751 eV  (added to PSCEN)


 Free energy of the ion-electron system (eV)
  ---------------------------------------------------
  alpha Z        PSCENC =       703.88132021
  Ewald energy   TEWEN  =    123389.01520696
  -Hartree energ DENC   =   -178749.45553733
  -exchange      EXHF   =         0.00000000
  -V(xc)+E(xc)   XCENC  =      2043.48083480
  PAW double counting   =     51433.77945331   -63612.77725151
  entropy T*S    EENTRO =        -0.03579529
  eigenvalues    EBANDS =     -8074.32324920
  atomic energy  EATOM  =     72744.15634917
  Solvation  Ediel_sol  =         0.00000000
  ---------------------------------------------------
  free energy    TOTEN  =      -122.27866889 eV

  energy without entropy =     -122.24287359  energy(sigma->0) =     -122.26077124


--------------------------------------------------------------------------------------------------------




--------------------------------------- Iteration      1(   5)  ---------------------------------------


     EDDAV:  cpu time      3.9661: real time      3.9666
       DOS:  cpu time      0.0007: real time      0.0007
    CHARGE:  cpu time      0.3287: real time      0.3288
    MIXING:  cpu time      0.0078: real time      0.0078
    --------------------------------------------
      LOOP:  cpu time      4.3034: real time      4.3038

 eigenvalue-minimisations  :  2192
 total energy-change (2. order) :-0.4501559E+01  (-0.4467862E+01)
 number of electron     395.9999994 magnetization 
 augmentation part      235.4549943 magnetization 

 DIPCOR: dipole corrections for dipol
 direction  3 min pos   191,
 dipolmoment           0.000000      0.000000      0.000333 electrons x Angstroem
 Tr[quadrupol]     -4891.094367

 energy correction for charged system         0.000000 eV
 dipol+quadrupol energy correction           -0.000000 eV
 added-field ion interaction          0.009751 eV  (added to PSCEN)


 Broyden mixing:
  rms(total) = 0.11292E+01    rms(broyden)= 0.11290E+01
  rms(prec ) = 0.11874E+01
  weight for this iteration     100.00

 Free energy of the ion-electron system (eV)
  ---------------------------------------------------
  alpha Z        PSCENC =       703.88132021
  Ewald energy   TEWEN  =    123389.01520696
  -Hartree energ DENC   =   -178749.45553733
  -exchange      EXHF   =         0.00000000
  -V(xc)+E(xc)   XCENC  =      2043.48083480
  PAW double counting   =     51433.77945331   -63612.77725151
  entropy T*S    EENTRO =        -0.03758509
  eigenvalues    EBANDS =     -8078.82301819
  atomic energy  EATOM  =     72744.15634917
  Solvation  Ediel_sol  =         0.00000000
  ---------------------------------------------------
  free energy    TOTEN  =      -126.78022767 eV

  energy without entropy =     -126.74264258  energy(sigma->0) =     -126.76143513


--------------------------------------------------------------------------------------------------------




--------------------------------------- Iteration      1(   6)  ---------------------------------------


    POTLOK:  cpu time      0.1814: real time      0.1814
    SETDIJ:  cpu time      0.1810: real time      0.1811
     EDDAV:  cpu time      3.9920: real time      3.9922
       DOS:  cpu time      0.0015: real time      0.0015
    CHARGE:  cpu time      0.3303: real time      0.3303
    MIXING:  cpu time      0.0066: real time      0.0066
    --------------------------------------------
      LOOP:  cpu time      4.6928: real time      4.6931

 eigenvalue-minimisations  :  2248
 total energy-change (2. order) : 0.1286127E+01  (-0.3150413E+00)
 number of electron     395.9999994 magnetization 
 augmentation part      235.5834206 magnetization 

 DIPCOR: dipole corrections for dipol
 direction  3 min pos   192,
 dipolmoment           0.000000      0.000000     -0.288937 electrons x Angstroem
 Tr[quadrupol]     -4892.566453

 energy correction for charged system         0.000000 eV
 dipol+quadrupol energy correction           -0.004567 eV
 added-field ion interaction         -9.706361 eV  (added to PSCEN)


 Broyden mixing:
  rms(total) = 0.63570E+00    rms(broyden)= 0.63567E+00
  rms(prec ) = 0.69810E+00
  weight for this iteration     100.00

 eigenvalues of (default mixing * dielectric matrix)
  average eigenvalue GAMMA=   1.9612
  1.9612

 Free energy of the ion-electron system (eV)
  ---------------------------------------------------
  alpha Z        PSCENC =       694.16064085
  Ewald energy   TEWEN  =    123389.01520696
  -Hartree energ DENC   =   -178790.61193701
  -exchange      EXHF   =         0.00000000
  -V(xc)+E(xc)   XCENC  =      2041.87013099
  PAW double counting   =     55158.37789615   -67354.94727905
  entropy T*S    EENTRO =        -0.02336758
  eigenvalues    EBANDS =     -8007.49174127
  atomic energy  EATOM  =     72744.15634917
  Solvation  Ediel_sol  =         0.00000000
  ---------------------------------------------------
  free energy    TOTEN  =      -125.49410080 eV

  energy without entropy =     -125.47073322  energy(sigma->0) =     -125.48241701


--------------------------------------------------------------------------------------------------------




--------------------------------------- Iteration      1(   7)  ---------------------------------------


    POTLOK:  cpu time      0.1736: real time      0.1736
    SETDIJ:  cpu time      0.1849: real time      0.1851
     EDDAV:  cpu time      4.9808: real time      4.9809
       DOS:  cpu time      0.0017: real time      0.0017
    CHARGE:  cpu time      0.3188: real time      0.3188
    MIXING:  cpu time      0.0128: real time      0.0128
    --------------------------------------------
      LOOP:  cpu time      5.6725: real time      5.6728

 eigenvalue-minimisations  :  2920
 total energy-change (2. order) :-0.4891564E+01  (-0.1841973E+01)
 number of electron     395.9999994 magnetization 
 augmentation part      235.4735620 magnetization 

 DIPCOR: dipole corrections for dipol
 direction  3 min pos   185,
 dipolmoment           0.000000      0.000000      0.842997 electrons x Angstroem
 Tr[quadrupol]     -4893.879825

 energy correction for charged system         0.000000 eV
 dipol+quadrupol energy correction           -0.038878 eV
 added-field ion interaction          2.899075 eV  (added to PSCEN)


 Broyden mixing:
  rms(total) = 0.62595E+00    rms(broyden)= 0.62592E+00
  rms(prec ) = 0.14736E+01
  weight for this iteration     100.00

 eigenvalues of (default mixing * dielectric matrix)
  average eigenvalue GAMMA=   1.2222
  2.1303  0.3141

 Free energy of the ion-electron system (eV)
  ---------------------------------------------------
  alpha Z        PSCENC =       706.73176615
  Ewald energy   TEWEN  =    123389.01520696
  -Hartree energ DENC   =   -178809.69552099
  -exchange      EXHF   =         0.00000000
  -V(xc)+E(xc)   XCENC  =      2040.55442761
  PAW double counting   =     58672.99567970   -70888.19878454
  entropy T*S    EENTRO =        -0.03189828
  eigenvalues    EBANDS =     -7985.91289085
  atomic energy  EATOM  =     72744.15634917
  Solvation  Ediel_sol  =         0.00000000
  ---------------------------------------------------
  free energy    TOTEN  =      -130.38566508 eV

  energy without entropy =     -130.35376680  energy(sigma->0) =     -130.36971594


--------------------------------------------------------------------------------------------------------




--------------------------------------- Iteration      1(   8)  ---------------------------------------


    POTLOK:  cpu time      0.1729: real time      0.1729
    SETDIJ:  cpu time      0.1778: real time      0.1778
     EDDAV:  cpu time      4.8215: real time      4.8217
       DOS:  cpu time      0.0006: real time      0.0006
    CHARGE:  cpu time      0.3665: real time      0.3665
    MIXING:  cpu time      0.0096: real time      0.0096
    --------------------------------------------
      LOOP:  cpu time      5.5488: real time      5.5491

 eigenvalue-minimisations  :  2832
 total energy-change (2. order) : 0.5371341E+01  (-0.1537803E+01)
 number of electron     395.9999994 magnetization 
 augmentation part      235.6756685 magnetization 

 DIPCOR: dipole corrections for dipol
 direction  3 min pos   190,
 dipolmoment           0.000000      0.000000     -0.230931 electrons x Angstroem
 Tr[quadrupol]     -4893.592548

 energy correction for charged system         0.000000 eV
 dipol+quadrupol energy correction           -0.002918 eV
 added-field ion interaction         -5.768157 eV  (added to PSCEN)


 Broyden mixing:
  rms(total) = 0.15764E+00    rms(broyden)= 0.15748E+00
  rms(prec ) = 0.23779E+00
  weight for this iteration     100.00

 eigenvalues of (default mixing * dielectric matrix)
  average eigenvalue GAMMA=   1.2848
  2.4145  1.2242  0.2156

 Free energy of the ion-electron system (eV)
  ---------------------------------------------------
  alpha Z        PSCENC =       698.10049484
  Ewald energy   TEWEN  =    123389.01520696
  -Hartree energ DENC   =   -178811.13272855
  -exchange      EXHF   =         0.00000000
  -V(xc)+E(xc)   XCENC  =      2040.28571998
  PAW double counting   =     59844.98208181   -72066.68852049
  entropy T*S    EENTRO =        -0.04169877
  eigenvalues    EBANDS =     -7963.69122879
  atomic energy  EATOM  =     72744.15634917
  Solvation  Ediel_sol  =         0.00000000
  ---------------------------------------------------
  free energy    TOTEN  =      -125.01432385 eV

  energy without entropy =     -124.97262508  energy(sigma->0) =     -124.99347447


--------------------------------------------------------------------------------------------------------




--------------------------------------- Iteration      1(   9)  ---------------------------------------


    POTLOK:  cpu time      0.1706: real time      0.1706
    SETDIJ:  cpu time      0.1821: real time      0.1821
     EDDAV:  cpu time      4.0052: real time      4.0055
       DOS:  cpu time      0.0009: real time      0.0009
    CHARGE:  cpu time      0.3150: real time      0.3151
    MIXING:  cpu time      0.0134: real time      0.0134
    --------------------------------------------
      LOOP:  cpu time      4.6873: real time      4.6876

 eigenvalue-minimisations  :  2248
 total energy-change (2. order) :-0.9737688E-01  (-0.2388892E+00)
 number of electron     395.9999993 magnetization 
 augmentation part      235.7009771 magnetization 

 DIPCOR: dipole corrections for dipol
 direction  3 min pos   192,
 dipolmoment           0.000000      0.000000     -0.104083 electrons x Angstroem
 Tr[quadrupol]     -4893.660694

 energy correction for charged system         0.000000 eV
 dipol+quadrupol energy correction           -0.000593 eV
 added-field ion interaction         -3.496498 eV  (added to PSCEN)


 Broyden mixing:
  rms(total) = 0.88637E-01    rms(broyden)= 0.88624E-01
  rms(prec ) = 0.13317E+00
  weight for this iteration     100.00

 eigenvalues of (default mixing * dielectric matrix)
  average eigenvalue GAMMA=   1.0903
  2.3758  1.2193  0.2170  0.5491

 Free energy of the ion-electron system (eV)
  ---------------------------------------------------
  alpha Z        PSCENC =       700.37447852
  Ewald energy   TEWEN  =    123389.01520696
  -Hartree energ DENC   =   -178813.46127454
  -exchange      EXHF   =         0.00000000
  -V(xc)+E(xc)   XCENC  =      2040.11869013
  PAW double counting   =     60739.47073437   -72968.89784929
  entropy T*S    EENTRO =        -0.02979930
  eigenvalues    EBANDS =     -7955.85823674
  atomic energy  EATOM  =     72744.15634917
  Solvation  Ediel_sol  =         0.00000000
  ---------------------------------------------------
  free energy    TOTEN  =      -125.11170073 eV

  energy without entropy =     -125.08190143  energy(sigma->0) =     -125.09680108


--------------------------------------------------------------------------------------------------------




--------------------------------------- Iteration      1(  10)  ---------------------------------------


    POTLOK:  cpu time      0.1712: real time      0.1712
    SETDIJ:  cpu time      0.1811: real time      0.1811
     EDDAV:  cpu time      3.8036: real time      3.8038
       DOS:  cpu time      0.0015: real time      0.0015
    CHARGE:  cpu time      0.3195: real time      0.3195
    MIXING:  cpu time      0.0106: real time      0.0106
    --------------------------------------------
      LOOP:  cpu time      4.4874: real time      4.4877

 eigenvalue-minimisations  :  2112
 total energy-change (2. order) :-0.5885022E-02  (-0.4056498E-01)
 number of electron     395.9999994 magnetization 
 augmentation part      235.7164109 magnetization 

 DIPCOR: dipole corrections for dipol
 direction  3 min pos   193,
 dipolmoment           0.000000      0.000000     -0.146408 electrons x Angstroem
 Tr[quadrupol]     -4893.917404

 energy correction for charged system         0.000000 eV
 dipol+quadrupol energy correction           -0.001173 eV
 added-field ion interaction         -5.549021 eV  (added to PSCEN)


 Broyden mixing:
  rms(total) = 0.62555E-01    rms(broyden)= 0.62551E-01
  rms(prec ) = 0.74629E-01
  weight for this iteration     100.00

 eigenvalues of (default mixing * dielectric matrix)
  average eigenvalue GAMMA=   1.0529
  2.3023  1.2536  0.2157  0.7465  0.7465

 Free energy of the ion-electron system (eV)
  ---------------------------------------------------
  alpha Z        PSCENC =       698.32137567
  Ewald energy   TEWEN  =    123389.01520696
  -Hartree energ DENC   =   -178824.71826676
  -exchange      EXHF   =         0.00000000
  -V(xc)+E(xc)   XCENC  =      2040.20323351
  PAW double counting   =     60689.89476093   -72920.93769407
  entropy T*S    EENTRO =        -0.03811076
  eigenvalues    EBANDS =     -7941.01444039
  atomic energy  EATOM  =     72744.15634917
  Solvation  Ediel_sol  =         0.00000000
  ---------------------------------------------------
  free energy    TOTEN  =      -125.11758575 eV

  energy without entropy =     -125.07947499  energy(sigma->0) =     -125.09853037


--------------------------------------------------------------------------------------------------------




--------------------------------------- Iteration      1(  11)  ---------------------------------------


    POTLOK:  cpu time      0.1771: real time      0.1771
    SETDIJ:  cpu time      0.1748: real time      0.1748
     EDDAV:  cpu time      4.0494: real time      4.0499
       DOS:  cpu time      0.0011: real time      0.0011
    CHARGE:  cpu time      0.3184: real time      0.3184
    MIXING:  cpu time      0.0099: real time      0.0099
    --------------------------------------------
      LOOP:  cpu time      4.7307: real time      4.7312

 eigenvalue-minimisations  :  2312
 total energy-change (2. order) : 0.4221736E-03  (-0.7160331E-02)
 number of electron     395.9999994 magnetization 
 augmentation part      235.7059264 magnetization 

 DIPCOR: dipole corrections for dipol
 direction  3 min pos   194,
 dipolmoment           0.000000      0.000000     -0.149135 electrons x Angstroem
 Tr[quadrupol]     -4894.129004

 energy correction for charged system         0.000000 eV
 dipol+quadrupol energy correction           -0.001217 eV
 added-field ion interaction         -6.294832 eV  (added to PSCEN)


 Broyden mixing:
  rms(total) = 0.48706E-01    rms(broyden)= 0.48703E-01
  rms(prec ) = 0.58169E-01
  weight for this iteration     100.00

 eigenvalues of (default mixing * dielectric matrix)
  average eigenvalue GAMMA=   1.1662
  2.1375  1.6459  1.2103  1.2103  0.2156  0.5772

 Free energy of the ion-electron system (eV)
  ---------------------------------------------------
  alpha Z        PSCENC =       697.57552072
  Ewald energy   TEWEN  =    123389.01520696
  -Hartree energ DENC   =   -178834.09070229
  -exchange      EXHF   =         0.00000000
  -V(xc)+E(xc)   XCENC  =      2040.36659667
  PAW double counting   =     60568.69749260   -72802.13610330
  entropy T*S    EENTRO =        -0.03872344
  eigenvalues    EBANDS =     -7928.66280067
  atomic energy  EATOM  =     72744.15634917
  Solvation  Ediel_sol  =         0.00000000
  ---------------------------------------------------
  free energy    TOTEN  =      -125.11716358 eV

  energy without entropy =     -125.07844013  energy(sigma->0) =     -125.09780185


--------------------------------------------------------------------------------------------------------




--------------------------------------- Iteration      1(  12)  ---------------------------------------


    POTLOK:  cpu time      0.1814: real time      0.1814
    SETDIJ:  cpu time      0.1734: real time      0.1734
     EDDAV:  cpu time      3.8925: real time      3.8929
       DOS:  cpu time      0.0014: real time      0.0014
    CHARGE:  cpu time      0.3230: real time      0.3231
    MIXING:  cpu time      0.0115: real time      0.0115
    --------------------------------------------
      LOOP:  cpu time      4.5832: real time      4.5837

 eigenvalue-minimisations  :  2208
 total energy-change (2. order) : 0.3346025E-04  (-0.3271120E-02)
 number of electron     395.9999994 magnetization 
 augmentation part      235.7014895 magnetization 

 DIPCOR: dipole corrections for dipol
 direction  3 min pos   194,
 dipolmoment           0.000000      0.000000     -0.159340 electrons x Angstroem
 Tr[quadrupol]     -4894.397304

 energy correction for charged system         0.000000 eV
 dipol+quadrupol energy correction           -0.001389 eV
 added-field ion interaction         -6.725576 eV  (added to PSCEN)


 Broyden mixing:
  rms(total) = 0.21236E-01    rms(broyden)= 0.21229E-01
  rms(prec ) = 0.23725E-01
  weight for this iteration     100.00

 eigenvalues of (default mixing * dielectric matrix)
  average eigenvalue GAMMA=   1.2123
  2.4949  2.0509  0.2156  1.1028  1.1028  0.7593  0.7593

 Free energy of the ion-electron system (eV)
  ---------------------------------------------------
  alpha Z        PSCENC =       697.14460414
  Ewald energy   TEWEN  =    123389.01520696
  -Hartree energ DENC   =   -178845.98968711
  -exchange      EXHF   =         0.00000000
  -V(xc)+E(xc)   XCENC  =      2040.57220545
  PAW double counting   =     60448.77593829   -72685.16146697
  entropy T*S    EENTRO =        -0.04153892
  eigenvalues    EBANDS =     -7913.58874112
  atomic energy  EATOM  =     72744.15634917
  Solvation  Ediel_sol  =         0.00000000
  ---------------------------------------------------
  free energy    TOTEN  =      -125.11713012 eV

  energy without entropy =     -125.07559119  energy(sigma->0) =     -125.09636065


--------------------------------------------------------------------------------------------------------




--------------------------------------- Iteration      1(  13)  ---------------------------------------


    POTLOK:  cpu time      0.1943: real time      0.1944
    SETDIJ:  cpu time      0.1568: real time      0.1568
     EDDAV:  cpu time      3.9106: real time      3.9109
       DOS:  cpu time      0.0011: real time      0.0011
    CHARGE:  cpu time      0.3204: real time      0.3204
    MIXING:  cpu time      0.0178: real time      0.0178
    --------------------------------------------
      LOOP:  cpu time      4.6010: real time      4.6015

 eigenvalue-minimisations  :  2128
 total energy-change (2. order) :-0.1845809E-02  (-0.1420714E-02)
 number of electron     395.9999994 magnetization 
 augmentation part      235.6996317 magnetization 

 DIPCOR: dipole corrections for dipol
 direction  3 min pos   194,
 dipolmoment           0.000000      0.000000     -0.165518 electrons x Angstroem
 Tr[quadrupol]     -4894.620470

 energy correction for charged system         0.000000 eV
 dipol+quadrupol energy correction           -0.001499 eV
 added-field ion interaction         -6.986309 eV  (added to PSCEN)


 Broyden mixing:
  rms(total) = 0.13777E-01    rms(broyden)= 0.13767E-01
  rms(prec ) = 0.14780E-01
  weight for this iteration     100.00

 eigenvalues of (default mixing * dielectric matrix)
  average eigenvalue GAMMA=   1.2238
  2.5008  1.8679  1.5875  1.0894  1.0894  0.2156  0.8044  0.6355

 Free energy of the ion-electron system (eV)
  ---------------------------------------------------
  alpha Z        PSCENC =       696.88376173
  Ewald energy   TEWEN  =    123389.01520696
  -Hartree energ DENC   =   -178853.62166649
  -exchange      EXHF   =         0.00000000
  -V(xc)+E(xc)   XCENC  =      2040.63698547
  PAW double counting   =     60456.02951039   -72693.22026960
  entropy T*S    EENTRO =        -0.04248577
  eigenvalues    EBANDS =     -7904.95636778
  atomic energy  EATOM  =     72744.15634917
  Solvation  Ediel_sol  =         0.00000000
  ---------------------------------------------------
  free energy    TOTEN  =      -125.11897593 eV

  energy without entropy =     -125.07649015  energy(sigma->0) =     -125.09773304


--------------------------------------------------------------------------------------------------------




--------------------------------------- Iteration      1(  14)  ---------------------------------------


    POTLOK:  cpu time      0.1778: real time      0.1778
    SETDIJ:  cpu time      0.1858: real time      0.1858
     EDDAV:  cpu time      4.0788: real time      4.0795
       DOS:  cpu time      0.0014: real time      0.0014
    CHARGE:  cpu time      0.3231: real time      0.3232
    MIXING:  cpu time      0.0108: real time      0.0108
    --------------------------------------------
      LOOP:  cpu time      4.7777: real time      4.7785

 eigenvalue-minimisations  :  2336
 total energy-change (2. order) :-0.1044354E-03  (-0.3660027E-03)
 number of electron     395.9999994 magnetization 
 augmentation part      235.7030605 magnetization 

 DIPCOR: dipole corrections for dipol
 direction  3 min pos   194,
 dipolmoment           0.000000      0.000000     -0.170049 electrons x Angstroem
 Tr[quadrupol]     -4894.719928

 energy correction for charged system         0.000000 eV
 dipol+quadrupol energy correction           -0.001582 eV
 added-field ion interaction         -7.177582 eV  (added to PSCEN)


 Broyden mixing:
  rms(total) = 0.85358E-02    rms(broyden)= 0.85222E-02
  rms(prec ) = 0.10838E-01
  weight for this iteration     100.00

 eigenvalues of (default mixing * dielectric matrix)
  average eigenvalue GAMMA=   1.3343
  2.7028  2.7028  1.4872  1.2601  1.2601  0.2156  0.8635  0.8635  0.6531

 Free energy of the ion-electron system (eV)
  ---------------------------------------------------
  alpha Z        PSCENC =       696.69240512
  Ewald energy   TEWEN  =    123389.01520696
  -Hartree energ DENC   =   -178855.52770841
  -exchange      EXHF   =         0.00000000
  -V(xc)+E(xc)   XCENC  =      2040.60710791
  PAW double counting   =     60469.64016223   -72705.67037937
  entropy T*S    EENTRO =        -0.04288290
  eigenvalues    EBANDS =     -7903.98934107
  atomic energy  EATOM  =     72744.15634917
  Solvation  Ediel_sol  =         0.00000000
  ---------------------------------------------------
  free energy    TOTEN  =      -125.11908036 eV

  energy without entropy =     -125.07619746  energy(sigma->0) =     -125.09763891


--------------------------------------------------------------------------------------------------------




--------------------------------------- Iteration      1(  15)  ---------------------------------------


    POTLOK:  cpu time      0.1803: real time      0.1803
    SETDIJ:  cpu time      0.1751: real time      0.1753
     EDDAV:  cpu time      3.8973: real time      3.8986
       DOS:  cpu time      0.0008: real time      0.0008
    CHARGE:  cpu time      0.3197: real time      0.3197
    MIXING:  cpu time      0.0107: real time      0.0107
    --------------------------------------------
      LOOP:  cpu time      4.5838: real time      4.5854

 eigenvalue-minimisations  :  2208
 total energy-change (2. order) :-0.5354695E-03  (-0.2287125E-03)
 number of electron     395.9999994 magnetization 
 augmentation part      235.7046760 magnetization 

 DIPCOR: dipole corrections for dipol
 direction  3 min pos   186,
 dipolmoment           0.000000      0.000000     -0.160309 electrons x Angstroem
 Tr[quadrupol]     -4895.123953

 energy correction for charged system         0.000000 eV
 dipol+quadrupol energy correction           -0.001406 eV
 added-field ion interaction         -1.241875 eV  (added to PSCEN)


 Broyden mixing:
  rms(total) = 0.51394E-02    rms(broyden)= 0.51167E-02
  rms(prec ) = 0.11904E-01
  weight for this iteration     100.00

 eigenvalues of (default mixing * dielectric matrix)
  average eigenvalue GAMMA=   1.2983
  3.0246  2.4062  1.2863  1.2863  1.2961  1.2961  0.2156  0.7838  0.7838  0.6038

 Free energy of the ion-electron system (eV)
  ---------------------------------------------------
  alpha Z        PSCENC =       702.62828796
  Ewald energy   TEWEN  =    123389.01520696
  -Hartree energ DENC   =   -178858.87984109
  -exchange      EXHF   =         0.00000000
  -V(xc)+E(xc)   XCENC  =      2040.60429344
  PAW double counting   =     60460.17905323   -72695.28257836
  entropy T*S    EENTRO =        -0.04104570
  eigenvalues    EBANDS =     -7907.49934144
  atomic energy  EATOM  =     72744.15634917
  Solvation  Ediel_sol  =         0.00000000
  ---------------------------------------------------
  free energy    TOTEN  =      -125.11961583 eV

  energy without entropy =     -125.07857013  energy(sigma->0) =     -125.09909298


--------------------------------------------------------------------------------------------------------




--------------------------------------- Iteration      1(  16)  ---------------------------------------


    POTLOK:  cpu time      0.1604: real time      0.1604
    SETDIJ:  cpu time      0.1927: real time      0.1927
     EDDAV:  cpu time      3.7901: real time      3.7909
       DOS:  cpu time      0.0009: real time      0.0008
    CHARGE:  cpu time      0.3148: real time      0.3150
    MIXING:  cpu time      0.0150: real time      0.0150
    --------------------------------------------
      LOOP:  cpu time      4.4739: real time      4.4749

 eigenvalue-minimisations  :  2152
 total energy-change (2. order) :-0.3516150E-05  (-0.1466149E-03)
 number of electron     395.9999994 magnetization 
 augmentation part      235.7070184 magnetization 

 DIPCOR: dipole corrections for dipol
 direction  3 min pos   182,
 dipolmoment           0.000000      0.000000     -0.163951 electrons x Angstroem
 Tr[quadrupol]     -4895.304459

 energy correction for charged system         0.000000 eV
 dipol+quadrupol energy correction           -0.001471 eV
 added-field ion interaction          1.554953 eV  (added to PSCEN)


 Broyden mixing:
  rms(total) = 0.18909E-02    rms(broyden)= 0.18292E-02
  rms(prec ) = 0.25683E-02
  weight for this iteration     100.00

 eigenvalues of (default mixing * dielectric matrix)
  average eigenvalue GAMMA=   1.2492
  2.9276  2.2904  1.7808  1.2360  1.2360  0.2156  1.2098  0.8432  0.8432  0.6252
  0.5337

 Free energy of the ion-electron system (eV)
  ---------------------------------------------------
  alpha Z        PSCENC =       705.42505171
  Ewald energy   TEWEN  =    123389.01520696
  -Hartree energ DENC   =   -178860.18546769
  -exchange      EXHF   =         0.00000000
  -V(xc)+E(xc)   XCENC  =      2040.61670692
  PAW double counting   =     60465.22663361   -72700.56562441
  entropy T*S    EENTRO =        -0.04213156
  eigenvalues    EBANDS =     -7908.76634405
  atomic energy  EATOM  =     72744.15634917
  Solvation  Ediel_sol  =         0.00000000
  ---------------------------------------------------
  free energy    TOTEN  =      -125.11961935 eV

  energy without entropy =     -125.07748778  energy(sigma->0) =     -125.09855357


--------------------------------------------------------------------------------------------------------




--------------------------------------- Iteration      1(  17)  ---------------------------------------


    POTLOK:  cpu time      0.1807: real time      0.1808
    SETDIJ:  cpu time      0.1760: real time      0.1760
     EDDAV:  cpu time      4.8986: real time      4.8990
       DOS:  cpu time      0.0012: real time      0.0012
    CHARGE:  cpu time      0.3177: real time      0.3177
    MIXING:  cpu time      0.0127: real time      0.0127
    --------------------------------------------
      LOOP:  cpu time      5.5869: real time      5.5874

 eigenvalue-minimisations  :  2888
 total energy-change (2. order) :-0.1933322E-03  (-0.8229487E-04)
 number of electron     395.9999994 magnetization 
 augmentation part      235.7077638 magnetization 

 DIPCOR: dipole corrections for dipol
 direction  3 min pos   181,
 dipolmoment           0.000000      0.000000     -0.166482 electrons x Angstroem
 Tr[quadrupol]     -4895.374876

 energy correction for charged system         0.000000 eV
 dipol+quadrupol energy correction           -0.001516 eV
 added-field ion interaction          2.296120 eV  (added to PSCEN)


 Broyden mixing:
  rms(total) = 0.21441E-02    rms(broyden)= 0.20902E-02
  rms(prec ) = 0.36423E-02
  weight for this iteration     100.00

 eigenvalues of (default mixing * dielectric matrix)
  average eigenvalue GAMMA=   1.2055
  3.0246  2.3646  1.5233  1.2822  1.2822  1.2634  0.2156  0.8804  0.8804  0.6191
  0.5651  0.5651

 Free energy of the ion-electron system (eV)
  ---------------------------------------------------
  alpha Z        PSCENC =       706.16617325
  Ewald energy   TEWEN  =    123389.01520696
  -Hartree energ DENC   =   -178860.79245077
  -exchange      EXHF   =         0.00000000
  -V(xc)+E(xc)   XCENC  =      2040.61921628
  PAW double counting   =     60468.21532431   -72703.57647671
  entropy T*S    EENTRO =        -0.04230705
  eigenvalues    EBANDS =     -7908.88084812
  atomic energy  EATOM  =     72744.15634917
  Solvation  Ediel_sol  =         0.00000000
  ---------------------------------------------------
  free energy    TOTEN  =      -125.11981268 eV

  energy without entropy =     -125.07750563  energy(sigma->0) =     -125.09865915


--------------------------------------------------------------------------------------------------------




--------------------------------------- Iteration      1(  18)  ---------------------------------------


    POTLOK:  cpu time      0.1710: real time      0.1711
    SETDIJ:  cpu time      0.1809: real time      0.1809
     EDDAV:  cpu time      3.9626: real time      3.9630
       DOS:  cpu time      0.0093: real time      0.0093
    CHARGE:  cpu time      0.3167: real time      0.3168
    MIXING:  cpu time      0.0132: real time      0.0132
    --------------------------------------------
      LOOP:  cpu time      4.6539: real time      4.6543

 eigenvalue-minimisations  :  2256
 total energy-change (2. order) :-0.1488122E-03  (-0.1815916E-04)
 number of electron     395.9999994 magnetization 
 augmentation part      235.7074868 magnetization 

 DIPCOR: dipole corrections for dipol
 direction  3 min pos   181,
 dipolmoment           0.000000      0.000000     -0.169482 electrons x Angstroem
 Tr[quadrupol]     -4895.425127

 energy correction for charged system         0.000000 eV
 dipol+quadrupol energy correction           -0.001571 eV
 added-field ion interaction          2.337500 eV  (added to PSCEN)


 Broyden mixing:
  rms(total) = 0.20308E-02    rms(broyden)= 0.19740E-02
  rms(prec ) = 0.42581E-02
  weight for this iteration     100.00

 eigenvalues of (default mixing * dielectric matrix)
  average eigenvalue GAMMA=   1.2773
  3.0236  2.2668  1.6149  1.6149  1.3521  1.3521  0.2156  1.1271  1.1271  0.7871
  0.7871  0.6137  0.7226

 Free energy of the ion-electron system (eV)
  ---------------------------------------------------
  alpha Z        PSCENC =       706.20749760
  Ewald energy   TEWEN  =    123389.01520696
  -Hartree energ DENC   =   -178861.85856508
  -exchange      EXHF   =         0.00000000
  -V(xc)+E(xc)   XCENC  =      2040.62981425
  PAW double counting   =     60463.71078420   -72699.20855929
  entropy T*S    EENTRO =        -0.04240477
  eigenvalues    EBANDS =     -7907.73008453
  atomic energy  EATOM  =     72744.15634917
  Solvation  Ediel_sol  =         0.00000000
  ---------------------------------------------------
  free energy    TOTEN  =      -125.11996149 eV

  energy without entropy =     -125.07755672  energy(sigma->0) =     -125.09875911


--------------------------------------------------------------------------------------------------------




--------------------------------------- Iteration      1(  19)  ---------------------------------------


    POTLOK:  cpu time      0.1860: real time      0.1860
    SETDIJ:  cpu time      0.1702: real time      0.1702
     EDDAV:  cpu time      3.7157: real time      3.7158
       DOS:  cpu time      0.0035: real time      0.0035
    CHARGE:  cpu time      0.3146: real time      0.3146
    MIXING:  cpu time      0.0148: real time      0.0148
    --------------------------------------------
      LOOP:  cpu time      4.4048: real time      4.4050

 eigenvalue-minimisations  :  2104
 total energy-change (2. order) :-0.2046114E-03  (-0.5991618E-05)
 number of electron     395.9999994 magnetization 
 augmentation part      235.7071079 magnetization 

 DIPCOR: dipole corrections for dipol
 direction  3 min pos   182,
 dipolmoment           0.000000      0.000000     -0.172197 electrons x Angstroem
 Tr[quadrupol]     -4895.469868

 energy correction for charged system         0.000000 eV
 dipol+quadrupol energy correction           -0.001622 eV
 added-field ion interaction          1.633167 eV  (added to PSCEN)


 Broyden mixing:
  rms(total) = 0.88385E-03    rms(broyden)= 0.74404E-03
  rms(prec ) = 0.12081E-02
  weight for this iteration     100.00
  WARNING: grid for Broyden might be to small

 eigenvalues of (default mixing * dielectric matrix)
  average eigenvalue GAMMA=   1.3831
  3.8138  2.8970  2.4847  1.3386  1.3386  1.4450  0.2156  1.0689  1.0689  0.8426
  0.8426  0.7050  0.7050  0.5965

 Free energy of the ion-electron system (eV)
  ---------------------------------------------------
  alpha Z        PSCENC =       705.50311424
  Ewald energy   TEWEN  =    123389.01520696
  -Hartree energ DENC   =   -178863.21941096
  -exchange      EXHF   =         0.00000000
  -V(xc)+E(xc)   XCENC  =      2040.63496938
  PAW double counting   =     60464.00938850   -72699.55741978
  entropy T*S    EENTRO =        -0.04200222
  eigenvalues    EBANDS =     -7905.62036140
  atomic energy  EATOM  =     72744.15634917
  Solvation  Ediel_sol  =         0.00000000
  ---------------------------------------------------
  free energy    TOTEN  =      -125.12016610 eV

  energy without entropy =     -125.07816388  energy(sigma->0) =     -125.09916499


--------------------------------------------------------------------------------------------------------




--------------------------------------- Iteration      1(  20)  ---------------------------------------


    POTLOK:  cpu time      0.1863: real time      0.1864
    SETDIJ:  cpu time      0.1741: real time      0.1742
     EDDAV:  cpu time      3.8970: real time      3.8972
       DOS:  cpu time      0.0013: real time      0.0013
    CHARGE:  cpu time      0.3155: real time      0.3155
    MIXING:  cpu time      0.0186: real time      0.0186
    --------------------------------------------
      LOOP:  cpu time      4.5928: real time      4.5931

 eigenvalue-minimisations  :  2203
 total energy-change (2. order) :-0.1716841E-03  (-0.4935125E-05)
 number of electron     395.9999994 magnetization 
 augmentation part      235.7074715 magnetization 

 DIPCOR: dipole corrections for dipol
 direction  3 min pos   185,
 dipolmoment           0.000000      0.000000     -0.176339 electrons x Angstroem
 Tr[quadrupol]     -4895.451581

 energy correction for charged system         0.000000 eV
 dipol+quadrupol energy correction           -0.001701 eV
 added-field ion interaction         -0.606433 eV  (added to PSCEN)


 Broyden mixing:
  rms(total) = 0.10951E-02    rms(broyden)= 0.98593E-03
  rms(prec ) = 0.12027E-02
  weight for this iteration     100.00

 eigenvalues of (default mixing * dielectric matrix)
  average eigenvalue GAMMA=   1.3287
  3.8068  2.7591  2.5140  1.4725  1.3280  1.3280  0.2156  1.0631  1.0631  0.8734
  0.8734  0.7309  0.6257  0.6382  0.6382

 Free energy of the ion-electron system (eV)
  ---------------------------------------------------
  alpha Z        PSCENC =       703.26343532
  Ewald energy   TEWEN  =    123389.01520696
  -Hartree energ DENC   =   -178864.72051610
  -exchange      EXHF   =         0.00000000
  -V(xc)+E(xc)   XCENC  =      2040.64081117
  PAW double counting   =     60464.04642171   -72699.62227045
  entropy T*S    EENTRO =        -0.04200182
  eigenvalues    EBANDS =     -7901.85777374
  atomic energy  EATOM  =     72744.15634917
  Solvation  Ediel_sol  =         0.00000000
  ---------------------------------------------------
  free energy    TOTEN  =      -125.12033779 eV

  energy without entropy =     -125.07833596  energy(sigma->0) =     -125.09933687


--------------------------------------------------------------------------------------------------------




--------------------------------------- Iteration      1(  21)  ---------------------------------------


    POTLOK:  cpu time      0.1877: real time      0.1877
    SETDIJ:  cpu time      0.1749: real time      0.1749
     EDDAV:  cpu time      3.9384: real time      3.9385
       DOS:  cpu time      0.0006: real time      0.0006
    CHARGE:  cpu time      0.3209: real time      0.3209
    MIXING:  cpu time      0.0159: real time      0.0159
    --------------------------------------------
      LOOP:  cpu time      4.6384: real time      4.6385

 eigenvalue-minimisations  :  2264
 total energy-change (2. order) :-0.2750305E-04  (-0.2230783E-05)
 number of electron     395.9999994 magnetization 
 augmentation part      235.7074843 magnetization 

 DIPCOR: dipole corrections for dipol
 direction  3 min pos   187,
 dipolmoment           0.000000      0.000000     -0.176958 electrons x Angstroem
 Tr[quadrupol]     -4895.393630

 energy correction for charged system         0.000000 eV
 dipol+quadrupol energy correction           -0.001713 eV
 added-field ion interaction         -2.133145 eV  (added to PSCEN)


 Broyden mixing:
  rms(total) = 0.74291E-03    rms(broyden)= 0.56976E-03
  rms(prec ) = 0.78680E-03
  weight for this iteration     100.00
  WARNING: grid for Broyden might be to small

 eigenvalues of (default mixing * dielectric matrix)
  average eigenvalue GAMMA=   1.4508
  4.6376  2.4950  2.4684  2.4684  1.4251  1.4251  0.2156  1.1141  1.1141  1.0816
  1.0816  0.8107  0.8107  0.7298  0.7298  0.6047

 Free energy of the ion-electron system (eV)
  ---------------------------------------------------
  alpha Z        PSCENC =       701.73671144
  Ewald energy   TEWEN  =    123389.01520696
  -Hartree energ DENC   =   -178864.87089892
  -exchange      EXHF   =         0.00000000
  -V(xc)+E(xc)   XCENC  =      2040.63981370
  PAW double counting   =     60464.06944848   -72699.62035686
  entropy T*S    EENTRO =        -0.04208415
  eigenvalues    EBANDS =     -7900.20455510
  atomic energy  EATOM  =     72744.15634917
  Solvation  Ediel_sol  =         0.00000000
  ---------------------------------------------------
  free energy    TOTEN  =      -125.12036529 eV

  energy without entropy =     -125.07828114  energy(sigma->0) =     -125.09932322


--------------------------------------------------------------------------------------------------------




--------------------------------------- Iteration      1(  22)  ---------------------------------------


    POTLOK:  cpu time      0.1863: real time      0.1863
    SETDIJ:  cpu time      0.1746: real time      0.1746
     EDDAV:  cpu time      3.6243: real time      3.6245
       DOS:  cpu time      0.0007: real time      0.0007
    CHARGE:  cpu time      0.3181: real time      0.3181
    MIXING:  cpu time      0.0140: real time      0.0140
    --------------------------------------------
[...]
    135     -25.2554      2.00000
    136     -25.2530      2.00000
    137     -25.2207      2.00000
    138     -25.2189      2.00000
    139     -25.2186      2.00000
    140     -25.2154      2.00000
    141     -12.7554      2.00000
    142     -12.1577      2.00000
    143     -12.1570      2.00000
    144     -11.9296      2.00000
    145     -11.5421      2.00000
    146     -11.4427      2.00000
    147     -11.4404      2.00000
    148     -10.8907      2.00000
    149     -10.8114      2.00000
    150     -10.6930      2.00000
    151     -10.5715      2.00000
    152     -10.1313      2.00000
    153      -9.4869      2.00000
    154      -9.4289      2.00000
    155      -9.3612      2.00000
    156      -9.2461      2.00000
    157      -8.5563      2.00000
    158      -8.1998      2.00000
    159      -8.1983      2.00000
    160      -7.8709      2.00000
    161      -7.7604      2.00000
    162      -7.2404      2.00000
    163      -7.2273      2.00000
    164      -7.2264      2.00000
    165      -6.4206      2.00000
    166      -6.3429      2.00000
    167      -6.3372      2.00000
    168      -4.9994      2.00000
    169      -4.8582      2.00000
    170      -4.7535      2.00000
    171      -4.6737      2.00000
    172      -4.6195      2.00000
    173      -4.3574      2.00000
    174      -4.2649      2.00000
    175      -4.2334      2.00000
    176      -4.1479      2.00000
    177      -4.0153      2.00000
    178      -3.7458      2.00000
    179      -3.6479      2.00000
    180      -3.6038      2.00000
    181      -3.5363      2.00000
    182      -3.5159      2.00000
    183      -3.4534      2.00000
    184      -3.2929      2.00000
    185      -3.2874      2.00000
    186      -3.1580      2.00000
    187      -3.1152      2.00000
    188      -3.0028      2.00000
    189      -2.9552      2.00000
    190      -2.8215      2.00000
    191      -2.7523      2.00000
    192      -2.2460      2.00000
    193      -2.0117      2.00000
    194      -1.9740      2.00000
    195      -1.8234      2.00000
    196      -1.6952      2.00000
    197      -1.4190      1.33075
    198      -1.4045      1.01474
    199      -1.2993      0.00311
    200      -1.1629      0.00000
    201      -0.9544      0.00000
    202      -0.9086      0.00000
    203      -0.1887      0.00000
    204      -0.0922      0.00000
    205       0.2689      0.00000
    206       0.3552      0.00000
    207       0.7060      0.00000
    208       0.7760      0.00000
    209       1.0684      0.00000
    210       1.2328      0.00000
    211       1.2370      0.00000
    212       1.3183      0.00000
    213       1.3869      0.00000
    214       1.6012      0.00000
    215       1.6133      0.00000
    216       1.6159      0.00000
    217       1.8235      0.00000
    218       1.8326      0.00000
    219       1.8866      0.00000
    220       1.9509      0.00000
    221       2.1279      0.00000
    222       2.1517      0.00000
    223       2.2210      0.00000
    224       2.2695      0.00000
    225       2.3500      0.00000
    226       2.6098      0.00000
    227       2.7391      0.00000
    228       2.8556      0.00000
    229       2.8601      0.00000
    230       2.8663      0.00000
    231       3.0084      0.00000
    232       3.2157      0.00000
    233       3.2184      0.00000
    234       3.5185      0.00000
    235       3.5669      0.00000
    236       3.5718      0.00000
    237       3.6771      0.00000


--------------------------------------------------------------------------------------------------------


 soft charge-density along one line, spin component           1
         0         1         2         3         4         5         6         7         8         9
 total charge-density along one line

 pseudopotential strength for first ion, spin component:           1
-27.931  -0.000   0.000  -0.000   0.000   6.991   0.000  -0.000
 -0.000 -27.865   0.000  -0.000   0.000   0.000   6.962  -0.000
  0.000   0.000 -27.905   0.000   0.054  -0.000  -0.000   6.980
 -0.000  -0.000   0.000 -27.956  -0.000   0.000   0.000  -0.000
  0.000   0.000   0.054  -0.000 -27.930  -0.000  -0.000  -0.024
  6.991   0.000  -0.000   0.000  -0.000   0.873  -0.000   0.000
  0.000   6.962  -0.000   0.000  -0.000  -0.000   0.884  -0.000
 -0.000  -0.000   6.980  -0.000  -0.024   0.000  -0.000   0.876
  0.000   0.000  -0.000   7.003   0.000  -0.000  -0.000  -0.000
 -0.000  -0.000  -0.024   0.000   6.991  -0.000  -0.000   0.009
 -0.000  -0.000   0.000  -0.000   0.002   0.000   0.000  -0.003
 -0.000  -0.000   0.001  -0.000   0.002   0.000   0.000  -0.004
  0.000  -0.000  -0.000  -0.000  -0.000  -0.000   0.008   0.000
 -0.000  -0.000   0.001   0.000   0.000   0.000  -0.000   0.008
 -0.000  -0.000  -0.000   0.001  -0.000   0.000   0.000  -0.000
  0.000  -0.001  -0.000  -0.000  -0.000  -0.000   0.014   0.000
 -0.000  -0.000   0.001   0.000   0.000   0.000  -0.000   0.015
 -0.000  -0.000   0.000  -0.001  -0.000   0.000   0.000  -0.000
 total augmentation occupancy for first ion, spin component:           1
  2.000   0.000   0.000   0.000   0.000   0.002  -0.000   0.000  -0.000  -0.000   0.000  -0.000   0.000   0.000   0.000   0.000
  0.000   2.003   0.000  -0.000   0.000   0.000   0.011   0.000  -0.000   0.000   0.000  -0.000   0.051   0.000   0.000  -0.009
 -0.000   0.000   2.000   0.000   0.001   0.000  -0.000   0.002  -0.000   0.002   0.004  -0.005   0.000   0.001   0.000   0.000
  0.000   0.000   0.000   1.999  -0.000  -0.000   0.000   0.000   0.001   0.000   0.000   0.000   0.000  -0.000  -0.010   0.000
 -0.000   0.000   0.001   0.000   2.001   0.000   0.000   0.002   0.000   0.006  -0.052   0.040   0.000  -0.029  -0.000   0.000
  0.002   0.000  -0.000  -0.000   0.000   0.005  -0.000  -0.000  -0.000  -0.000   0.000  -0.000  -0.000  -0.000  -0.000   0.000
  0.000   0.011   0.000  -0.000  -0.000  -0.000   0.039  -0.000  -0.000   0.000   0.000  -0.000   0.248  -0.000  -0.000  -0.040
  0.000  -0.000   0.002  -0.000   0.002   0.000   0.000   0.006   0.000   0.001  -0.001  -0.007  -0.000   0.048  -0.000   0.000
 -0.000  -0.000   0.000   0.001   0.000  -0.000  -0.000   0.000   0.009   0.000  -0.000  -0.000  -0.000   0.000  -0.020   0.000
  0.000   0.000   0.002   0.000   0.006  -0.000  -0.000   0.001   0.000   0.021  -0.076   0.036   0.000  -0.121  -0.000   0.000
 -0.000   0.000   0.004   0.000  -0.052   0.000   0.000  -0.001  -0.000  -0.076   2.697  -0.581  -0.000   0.500  -0.000   0.000
  0.000  -0.000  -0.005   0.000   0.040   0.000   0.000  -0.007   0.000   0.036  -0.581   0.396   0.000  -0.392   0.000   0.000
  0.000   0.051   0.000   0.000   0.000  -0.000   0.248   0.000   0.000   0.000   0.000   0.000   1.792  -0.000  -0.000  -0.273
  0.000   0.000   0.001  -0.000  -0.029  -0.000   0.000   0.048   0.000  -0.121   0.500  -0.392   0.000   1.369  -0.000   0.000
  0.000   0.000   0.000  -0.010  -0.000   0.000  -0.000  -0.000  -0.020   0.000   0.000  -0.000  -0.000  -0.000   0.815   0.000
 -0.000  -0.009   0.000  -0.000  -0.000  -0.000  -0.040   0.000  -0.000   0.000   0.000   0.000  -0.273   0.000  -0.000   0.049
  0.000   0.000   0.007   0.000   0.009   0.000   0.000  -0.007   0.000   0.018  -0.115   0.067   0.000  -0.181   0.000   0.000
 -0.000   0.000  -0.000   0.010  -0.000  -0.000  -0.000   0.000   0.002   0.000   0.000  -0.000  -0.000  -0.000  -0.103  -0.000


------------------------ aborting loop because EDIFF is reached ----------------------------------------


    CHARGE:  cpu time      0.3100: real time      0.3100
    FORLOC:  cpu time      0.0198: real time      0.0198
    FORNL :  cpu time      1.5496: real time      1.5497
    STRESS:  cpu time      4.8528: real time      4.8532
    FORCOR:  cpu time      0.1770: real time      0.1770
    FORHAR:  cpu time      0.0610: real time      0.0610
    MIXING:  cpu time      0.0108: real time      0.0108
    OFIELD:  cpu time      0.0000: real time      0.0000

  FORCE on cell =-STRESS in cart. coord.  units (eV):
  Direction    XX          YY          ZZ          XY          YZ          ZX
  --------------------------------------------------------------------------------------
  Alpha Z   703.87157   703.87157   703.87157
  Ewald  145752.64857145570.48162************     0.00000    -0.00000     0.00000
  Hartree162493.22868162314.29315************    -0.00000    -0.00000    -0.00000
  E(xc)   -2308.47822 -2309.76506 -2309.54597     0.00000     0.00000    -0.00000
  Local  ************************311750.86735    -0.00000     0.00000     0.00000
  n-local   788.22958   785.61894   784.08431    -0.32952    -0.00001    -0.00001
  augment  3519.26705  3514.50377  3519.10326     0.00000     0.00032     0.00027
  Kinetic  2025.30793  2027.23893  2032.28423    -0.07014    -0.00001    -0.00000
  Fock        0.00000     0.00000     0.00000     0.00000     0.00000     0.00000
  -------------------------------------------------------------------------------------
  Total     -15.98324    -1.73050    -9.66112     0.00000     0.00000     0.00000
  in kB     -15.48434    -1.67648    -9.35956     0.00000     0.00000     0.00000
  external pressure =       -8.84 kB  Pullay stress =        0.00 kB


 VOLUME and BASIS-vectors are now :
 -----------------------------------------------------------------------------
  energy-cutoff  :      400.00
  volume of cell :     1653.80
      direct lattice vectors                 reciprocal lattice vectors
     8.124656920  0.000000000  0.000000000     0.123082120  0.000000000  0.000000000
     0.000000000  8.124656920  0.000000000     0.000000000  0.123082120  0.000000000
     0.000000000  0.000000000 25.053750000     0.000000000  0.000000000  0.039914185

  length of vectors
     8.124656920  8.124656920 25.053750000     0.123082120  0.123082120  0.039914185


 FORCES acting on ions
    electron-ion (+dipol)            ewald-force                    non-local-force                 convergence-correction
 -----------------------------------------------------------------------------------------------
   0.149E-12 0.274E-11 0.361E+04   0.142E-13 -.518E-14 -.362E+04   -.589E-21 -.782E-21 0.601E+01   -.778E-12 -.201E-12 0.434E-03
   0.190E-12 -.106E-11 -.132E+04   -.797E-13 -.711E-13 0.132E+04   -.207E-20 -.912E-21 -.600E+00   0.120E-11 0.276E-13 0.183E-02
   -.160E-12 -.185E-11 0.123E+04   -.692E-13 0.555E-14 -.123E+04   0.720E-21 0.147E-20 -.215E+01   0.743E-12 -.401E-12 0.178E-02
   -.400E-12 0.218E-11 -.366E+04   -.121E-12 0.113E-13 0.368E+04   -.999E-21 -.308E-21 -.157E+02   -.470E-12 0.987E-12 -.533E-03
   -.276E-12 0.179E-11 -.476E+02   -.214E-13 0.694E-14 0.490E+02   0.217E-21 -.283E-21 -.141E+01   0.420E-12 -.467E-12 0.244E-02
   0.149E-12 -.136E-11 0.247E+04   0.142E-13 0.657E-13 -.247E+04   -.146E-20 0.240E-21 0.954E+00   0.481E-13 -.963E-12 0.170E-02
   0.104E-12 0.724E-12 -.254E+04   0.823E-13 0.238E-13 0.254E+04   0.964E-21 -.475E-21 -.435E+01   0.140E-11 0.893E-12 0.137E-02
   -.312E-12 0.246E-11 0.361E+04   0.000E+00 -.141E-14 -.362E+04   0.106E-20 0.640E-21 0.601E+01   0.828E-12 -.184E-12 0.434E-03
   -.260E-12 -.780E-12 -.132E+04   0.119E-13 -.114E-12 0.132E+04   -.243E-21 -.902E-21 -.600E+00   -.135E-11 -.164E-12 0.183E-02
   -.509E-12 0.343E-12 0.123E+04   0.658E-13 -.200E-14 -.123E+04   0.773E-21 -.446E-21 -.215E+01   -.623E-12 -.579E-12 0.178E-02
   -.435E-12 0.346E-11 -.366E+04   -.568E-13 0.284E-13 0.368E+04   0.842E-21 -.338E-21 -.157E+02   0.489E-12 0.199E-11 -.533E-03
   -.495E-12 0.161E-11 -.476E+02   0.128E-12 -.166E-15 0.490E+02   0.561E-21 0.124E-20 -.141E+01   -.445E-12 -.488E-12 0.244E-02
   -.216E-12 -.421E-11 0.247E+04   0.475E-13 0.657E-13 -.247E+04   0.305E-21 -.543E-21 0.954E+00   -.178E-12 -.136E-11 0.170E-02
   -.267E-12 0.129E-11 -.254E+04   0.121E-12 0.654E-13 0.254E+04   -.625E-21 -.517E-21 -.435E+01   -.148E-11 0.994E-12 0.137E-02
   0.141E-12 0.229E-11 0.361E+04   0.213E-13 0.792E-14 -.362E+04   -.487E-21 0.474E-21 0.601E+01   0.761E-13 0.533E-12 0.434E-03
   0.231E-12 -.134E-11 -.132E+04   -.701E-13 -.356E-13 0.132E+04   0.193E-21 0.860E-21 -.600E+00   0.738E-12 0.217E-12 0.183E-02
   -.177E-12 -.151E-11 0.123E+04   -.354E-13 -.733E-14 -.123E+04   0.406E-21 -.143E-20 -.215E+01   0.993E-12 0.512E-12 0.178E-02
   -.370E-12 0.133E-11 -.366E+04   -.114E-12 -.534E-14 0.368E+04   -.134E-20 -.149E-21 -.157E+02   -.257E-12 -.715E-12 -.533E-03
   -.288E-12 0.230E-11 -.476E+02   -.357E-13 -.727E-14 0.490E+02   -.646E-21 -.281E-21 -.141E+01   0.149E-12 0.261E-12 0.244E-02
   0.137E-12 -.153E-11 0.247E+04   -.622E-14 -.101E-12 -.247E+04   0.635E-21 0.329E-21 0.954E+00   -.431E-12 0.881E-12 0.170E-02
   0.107E-12 0.100E-11 -.254E+04   -.263E-13 0.142E-12 0.254E+04   0.752E-21 -.515E-21 -.435E+01   0.150E-11 -.105E-11 0.137E-02
   -.273E-12 0.331E-11 0.361E+04   -.355E-14 0.437E-14 -.362E+04   0.107E-20 -.107E-20 0.601E+01   -.413E-13 0.414E-12 0.434E-03
   -.297E-12 -.496E-13 -.132E+04   0.117E-12 -.114E-12 0.132E+04   -.139E-21 -.854E-21 -.600E+00   -.910E-12 0.576E-12 0.183E-02
   -.556E-12 0.759E-11 0.123E+04   0.178E-13 -.666E-15 -.123E+04   -.137E-20 0.527E-21 -.215E+01   -.885E-12 0.911E-12 0.178E-02
   -.410E-12 -.688E-11 -.366E+04   -.568E-13 -.674E-14 0.368E+04   -.110E-20 0.279E-21 -.157E+02   0.296E-12 -.186E-11 -.533E-03
   -.495E-12 0.806E-11 -.476E+02   0.922E-13 -.499E-13 0.490E+02   0.654E-21 0.129E-20 -.141E+01   -.162E-12 0.329E-12 0.244E-02
   -.220E-12 -.963E-12 0.247E+04   0.515E-13 -.715E-13 -.247E+04   0.245E-21 -.354E-21 0.954E+00   0.287E-12 0.126E-11 0.170E-02
   -.264E-12 0.390E-12 -.254E+04   0.841E-13 0.136E-12 0.254E+04   -.480E-21 -.541E-21 -.435E+01   -.158E-11 -.135E-11 0.137E-02
   0.910E-14 0.116E-12 0.279E+03   0.200E-14 0.163E-14 -.278E+03   -.280E-22 -.622E-25 0.501E+00   0.328E-13 -.103E-13 -.553E-04
   0.192E-14 0.110E-12 0.279E+03   0.155E-14 -.143E-15 -.278E+03   0.737E-23 0.873E-25 0.501E+00   -.393E-13 -.218E-13 -.553E-04
   0.821E-14 0.988E-13 0.279E+03   0.117E-14 0.147E-14 -.278E+03   0.782E-23 0.210E-24 0.501E+00   0.328E-13 0.877E-14 -.553E-04
   0.332E-14 -.612E-14 0.279E+03   0.287E-15 0.106E-14 -.278E+03   0.533E-23 -.586E-24 0.501E+00   -.394E-13 0.221E-13 -.553E-04
 -----------------------------------------------------------------------------------------------
   -.545E-11 0.217E-10 0.669E+02   0.178E-12 -.250E-13 -.114E-11   -.215E-20 -.334E-20 -.670E+02   -.442E-12 0.988E-12 0.358E-01


 POSITION                                       TOTAL-FORCE (eV/Angst)
 -----------------------------------------------------------------------------------
      0.00000      0.00000      1.43625        -0.000000      0.000000     -1.535517
      0.00000      0.00000      7.18219        -0.000000     -0.000000      0.016015
      2.03116      2.03116      4.30875        -0.000000      0.000000      0.047900
      2.03116      2.03116     10.12835         0.000000     -0.000000      0.002518
      2.03116      0.00000      5.75183        -0.000000      0.000000     -0.015379
      0.00000      2.03116      2.87250         0.000000      0.000000      0.011872
      0.00000      2.03116      8.63760         0.000000     -0.000000     -0.012036
      4.06233      0.00000      1.43625         0.000000      0.000000     -1.535517
      4.06233     -0.00000      7.18219         0.000000     -0.000000      0.016015
      6.09349      2.03116      4.30875         0.000000      0.000000      0.047900
      6.09349      2.03116     10.12835        -0.000000     -0.000000      0.002518
      6.09349     -0.00000      5.75183        -0.000000     -0.000000     -0.015379
      4.06233      2.03116      2.87250        -0.000000     -0.000000      0.011872
      4.06233      2.03116      8.63760         0.000000     -0.000000     -0.012036
      0.00000      4.06233      1.43625         0.000000     -0.000000     -1.535517
      0.00000      4.06233      7.18219         0.000000      0.000000      0.016015
      2.03116      6.09349      4.30875        -0.000000      0.000000      0.047900
      2.03116      6.09349     10.12835        -0.000000      0.000000      0.002518
      2.03116      4.06233      5.75183        -0.000000     -0.000000     -0.015379
      0.00000      6.09349      2.87250        -0.000000      0.000000      0.011872
      0.00000      6.09349      8.63760        -0.000000      0.000000     -0.012036
      4.06233      4.06233      1.43625        -0.000000     -0.000000     -1.535517
      4.06233      4.06233      7.18219        -0.000000      0.000000      0.016015
      6.09349      6.09349      4.30875         0.000000     -0.000000      0.047900
      6.09349      6.09349     10.12835         0.000000      0.000000      0.002518
      6.09349      4.06233      5.75183        -0.000000     -0.000000     -0.015379
      4.06233      6.09349      2.87250        -0.000000     -0.000000      0.011872
      4.06233      6.09349      8.63760        -0.000000      0.000000     -0.012036
      2.03116      0.00000      0.00000        -0.000000     -0.000000      1.484626
      6.09349      0.00000      0.00000        -0.000000     -0.000000      1.484626
      2.03116      4.06233      0.00000        -0.000000     -0.000000      1.484626
      6.09349      4.06233      0.00000        -0.000000     -0.000000      1.484626
 -----------------------------------------------------------------------------------
    total drift:                               -0.000000      0.000000     -0.040543


--------------------------------------------------------------------------------------------------------



  FREE ENERGIE OF THE ION-ELECTRON SYSTEM (eV)
  ---------------------------------------------------
  free  energy   TOTEN  =      -125.16190071 eV

  energy  without entropy=     -125.12429767  energy(sigma->0) =     -125.14309919

 d Force = 0.2039219E-03[-0.482E-03, 0.890E-03]  d Energy = 0.1629798E-03 0.409E-04
 d Force = 0.9669889E+02[ 0.967E+02, 0.967E+02]  d Ewald  = 0.9669891E+02-0.247E-04


--------------------------------------------------------------------------------------------------------


    POTLOK:  cpu time      0.3604: real time      0.3606


--------------------------------------------------------------------------------------------------------


 Conjugate gradient step on ions:
 trial-energy change:   -0.000163  1 .order   -0.000204   -0.000890    0.000482
  (g-gl).g = 0.405E-03      g.g   = 0.408E-03  gl.gl    = 0.344E-03
 g(Force)  = 0.408E-03   g(Stress)= 0.000E+00 ortho     = 0.108E-04
 gamma     =   1.17554
 trial     =   2.11633
 opt step  =   1.28218  (harmonic =   1.37265) maximal distance =0.00334569
 next E    =  -125.161998   (d E  =  -0.00026)


--------------------------------------------------------------------------------------------------------


  
 reached required accuracy - stopping structural energy minimisation
     LOOP+:  cpu time     39.5075: real time     39.5093
    4ORBIT:  cpu time      0.0000: real time      0.0000

 total amount of memory used by VASP MPI-rank0   133161. kBytes
=======================================================================

   base      :      30000. kBytes
   nonlr-proj:       2205. kBytes
   fftplans  :      30240. kBytes
   grid      :      12364. kBytes
   one-center:         62. kBytes
   wavefun   :      58290. kBytes

  
  
 General timing and accounting informations for this job:
 ========================================================
  
                  Total CPU time used (sec):      688.932
                            User time (sec):      651.265
                          System time (sec):       37.667
                         Elapsed time (sec):      689.481
  
                   Maximum memory used (kb):      189056.
                   Average memory used (kb):          N/A
  
                          Minor page faults:      1328838
                          Major page faults:           48
                 Voluntary context switches:         1563
