       N       E                     dE             d eps       ncg     rms          rms(c)
DAV:   1    -0.903508023857E+01   -0.90351E+01   -0.57336E-08  1014   0.260E-03
DAV:   2    -0.903508023963E+01   -0.10614E-08   -0.10146E-08  1014   0.123E-03
   1 F= -.90350802E+01 E0= -.90350802E+01  d E =0.000000E+00
