       N       E                     dE             d eps       ncg     rms          rms(c)
DAV:   1     0.515796223994E+04    0.51580E+04   -0.21343E+05  7392   0.300E+03
DAV:   2     0.801813569638E+03   -0.43561E+04   -0.41669E+04  6272   0.874E+02
DAV:   3    -0.891419412714E+02   -0.89096E+03   -0.87275E+03  7296   0.222E+02
DAV:   4    -0.162038353065E+03   -0.72896E+02   -0.72342E+02  6784   0.749E+01
DAV:   5    -0.165387549408E+03   -0.33492E+01   -0.33475E+01  7712   0.174E+01    0.148E+01
DAV:   6    -0.162852748964E+03    0.25348E+01   -0.32451E+00  7136   0.153E+01    0.844E+00
DAV:   7    -0.165392531411E+03   -0.25398E+01   -0.27359E+01  7904   0.630E+01    0.543E+00
DAV:   8    -0.161694428735E+03    0.36981E+01   -0.35463E+01  9792   0.161E+01    0.127E+00
DAV:   9    -0.161727785904E+03   -0.33357E-01   -0.15655E+00  8192   0.769E+00    0.940E-01
DAV:  10    -0.161757654497E+03   -0.29869E-01   -0.40770E-01  6880   0.273E+00    0.555E-01
DAV:  11    -0.161760849399E+03   -0.31949E-02   -0.46998E-02  6784   0.196E+00    0.281E-01
DAV:  12    -0.161760668194E+03    0.18120E-03   -0.18378E-02  6912   0.118E+00    0.141E-01
DAV:  13    -0.161761145923E+03   -0.47773E-03   -0.75872E-03  6496   0.737E-01    0.739E-02
DAV:  14    -0.161761118076E+03    0.27847E-04   -0.24156E-03  6816   0.539E-01    0.605E-02
DAV:  15    -0.161761425371E+03   -0.30730E-03   -0.11560E-03  7040   0.297E-01    0.411E-02
DAV:  16    -0.161762050292E+03   -0.62492E-03   -0.70785E-04  6464   0.221E-01    0.274E-02
DAV:  17    -0.161762216658E+03   -0.16637E-03   -0.21481E-04  7008   0.190E-01    0.173E-02
DAV:  18    -0.161762515139E+03   -0.29848E-03   -0.25711E-04  6432   0.150E-01    0.148E-02
DAV:  19    -0.161762653545E+03   -0.13841E-03   -0.92844E-05  6496   0.833E-02    0.957E-03
DAV:  20    -0.161762802443E+03   -0.14890E-03   -0.50615E-05  8064   0.416E-02    0.875E-03
DAV:  21    -0.161763084571E+03   -0.28213E-03   -0.20687E-05  6784   0.293E-02    0.846E-03
DAV:  22    -0.161763325239E+03   -0.24067E-03   -0.86720E-05  4864   0.173E-01    0.208E-02
DAV:  23    -0.161763443110E+03   -0.11787E-03   -0.37031E-05  5088   0.109E-01    0.292E-02
DAV:  24    -0.161763442127E+03    0.98362E-06   -0.21950E-05  5472   0.858E-02    0.236E-02
DAV:  25    -0.161763417965E+03    0.24162E-04   -0.28141E-05  4640   0.108E-01    0.161E-02
DAV:  26    -0.161763401604E+03    0.16361E-04   -0.37843E-05  4896   0.112E-01    0.751E-03
DAV:  27    -0.161763401906E+03   -0.30154E-06   -0.11017E-05  4928   0.362E-02    0.470E-03
DAV:  28    -0.161763408483E+03   -0.65772E-05   -0.36051E-06  5440   0.194E-02    0.625E-03
DAV:  29    -0.161763413834E+03   -0.53506E-05   -0.69935E-07  4416   0.140E-02    0.765E-03
DAV:  30    -0.161763423206E+03   -0.93726E-05   -0.20874E-06  4160   0.257E-02    0.101E-02
DAV:  31    -0.161763420180E+03    0.30263E-05   -0.10754E-06  4416   0.116E-02    0.944E-03
DAV:  32    -0.161763421444E+03   -0.12647E-05   -0.71125E-07  3968   0.546E-03    0.971E-03
DAV:  33    -0.161763421390E+03    0.54191E-07   -0.32998E-07  3744   0.227E-03
   1 F= -.16176342E+03 E0= -.16175437E+03  d E =-.161763E+03
       N       E                     dE             d eps       ncg     rms          rms(c)
DAV:   1    -0.162074855761E+03   -0.31143E+00   -0.11599E+02  6336   0.219E+01    0.149E+00
DAV:   2    -0.162406843364E+03   -0.33199E+00   -0.35103E+00  6880   0.563E+00    0.104E+00
DAV:   3    -0.162425102817E+03   -0.18259E-01   -0.30107E-01  7424   0.431E+00    0.607E-01
DAV:   4    -0.162434778754E+03   -0.96759E-02   -0.89286E-02  7232   0.615E+00    0.373E-01
DAV:   5    -0.162423247763E+03    0.11531E-01   -0.67671E-02  8704   0.349E+00    0.132E-01
DAV:   6    -0.162424838224E+03   -0.15905E-02   -0.21840E-02  7168   0.673E-01    0.768E-02
DAV:   7    -0.162425039985E+03   -0.20176E-03   -0.29270E-03  7232   0.380E-01    0.488E-02
DAV:   8    -0.162425135135E+03   -0.95151E-04   -0.55879E-04  7072   0.282E-01    0.211E-02
DAV:   9    -0.162425231191E+03   -0.96056E-04   -0.33689E-04  6624   0.168E-01    0.114E-02
DAV:  10    -0.162425308906E+03   -0.77715E-04   -0.17073E-04  7072   0.815E-02    0.703E-03
DAV:  11    -0.162425387134E+03   -0.78228E-04   -0.40809E-05  6432   0.726E-02    0.417E-03
DAV:  12    -0.162425431623E+03   -0.44489E-04   -0.31359E-05  7360   0.291E-02    0.302E-03
DAV:  13    -0.162425465287E+03   -0.33663E-04   -0.41317E-06  5696   0.222E-02    0.204E-03
DAV:  14    -0.162425493606E+03   -0.28319E-04   -0.17331E-06  4480   0.916E-03    0.167E-03
DAV:  15    -0.162425504770E+03   -0.11165E-04   -0.84780E-07  4320   0.101E-02    0.136E-03
DAV:  16    -0.162425517089E+03   -0.12319E-04   -0.62419E-07  4416   0.532E-03    0.130E-03
DAV:  17    -0.162425524877E+03   -0.77880E-05   -0.36435E-07  4064   0.563E-03    0.118E-03
DAV:  18    -0.162425527410E+03   -0.25327E-05   -0.19575E-07  4448   0.298E-03    0.116E-03
DAV:  19    -0.162425528295E+03   -0.88497E-06   -0.14053E-07  4320   0.229E-03
   2 F= -.16242553E+03 E0= -.16241468E+03  d E =-.662107E+00
       N       E                     dE             d eps       ncg     rms          rms(c)
DAV:   1    -0.162436612962E+03   -0.11086E-01   -0.78633E+00  6400   0.540E+00    0.385E-01
DAV:   2    -0.162452559935E+03   -0.15947E-01   -0.17437E-01  7200   0.151E+00    0.266E-01
DAV:   3    -0.162453640796E+03   -0.10809E-02   -0.18592E-02  7040   0.114E+00    0.153E-01
DAV:   4    -0.162454158586E+03   -0.51779E-03   -0.66908E-03  6720   0.141E+00    0.903E-02
DAV:   5    -0.162453598183E+03    0.56040E-03   -0.51139E-03  8608   0.810E-01    0.298E-02
DAV:   6    -0.162453691693E+03   -0.93510E-04   -0.13475E-03  7008   0.211E-01    0.200E-02
DAV:   7    -0.162453726280E+03   -0.34587E-04   -0.41299E-04  7776   0.937E-02    0.134E-02
DAV:   8    -0.162453734195E+03   -0.79149E-05   -0.48013E-05  7168   0.961E-02    0.655E-03
DAV:   9    -0.162453744139E+03   -0.99438E-05   -0.28463E-05  6880   0.364E-02    0.336E-03
DAV:  10    -0.162453751800E+03   -0.76612E-05   -0.80620E-06  5824   0.168E-02    0.189E-03
DAV:  11    -0.162453760052E+03   -0.82518E-05   -0.19155E-06  5056   0.169E-02    0.149E-03
DAV:  12    -0.162453765313E+03   -0.52612E-05   -0.11987E-06  4736   0.629E-03    0.126E-03
DAV:  13    -0.162453769920E+03   -0.46063E-05   -0.40089E-07  3968   0.537E-03    0.113E-03
DAV:  14    -0.162453774333E+03   -0.44134E-05   -0.32027E-07  3872   0.314E-03    0.109E-03
DAV:  15    -0.162453776088E+03   -0.17549E-05   -0.12590E-07  4192   0.278E-03    0.107E-03
DAV:  16    -0.162453777183E+03   -0.10947E-05   -0.71019E-08  3904   0.182E-03    0.106E-03
DAV:  17    -0.162453777927E+03   -0.74448E-06   -0.41337E-08  4032   0.166E-03
   3 F= -.16245378E+03 E0= -.16244286E+03  d E =-.690357E+00
       N       E                     dE             d eps       ncg     rms          rms(c)
DAV:   1    -0.162675216436E+03   -0.22144E+00   -0.48183E+01  6016   0.143E+01    0.114E+00
DAV:   2    -0.162783459349E+03   -0.10824E+00   -0.12338E+00  7008   0.429E+00    0.742E-01
DAV:   3    -0.162791962575E+03   -0.85032E-02   -0.14769E-01  6912   0.465E+00    0.478E-01
DAV:   4    -0.162786618899E+03    0.53437E-02   -0.66679E-02  8608   0.378E+00    0.217E-01
DAV:   5    -0.162785549977E+03    0.10689E-02   -0.27602E-02  7904   0.123E+00    0.786E-02
DAV:   6    -0.162786542005E+03   -0.99203E-03   -0.10180E-02  6752   0.470E-01    0.508E-02
DAV:   7    -0.162786655809E+03   -0.11380E-03   -0.12229E-03  7744   0.358E-01    0.329E-02
DAV:   8    -0.162786751215E+03   -0.95406E-04   -0.36873E-04  7392   0.154E-01    0.117E-02
DAV:   9    -0.162786803763E+03   -0.52547E-04   -0.13416E-04  6784   0.854E-02    0.580E-03
DAV:  10    -0.162786829207E+03   -0.25444E-04   -0.38355E-05  6336   0.524E-02    0.420E-03
DAV:  11    -0.162786873110E+03   -0.43903E-04   -0.21151E-05  7392   0.296E-02    0.248E-03
DAV:  12    -0.162786895424E+03   -0.22315E-04   -0.59645E-06  6304   0.145E-02    0.185E-03
DAV:  13    -0.162786911866E+03   -0.16442E-04   -0.22951E-06  5184   0.939E-03    0.159E-03
DAV:  14    -0.162786928101E+03   -0.16234E-04   -0.17064E-06  4864   0.897E-03    0.126E-03
DAV:  15    -0.162786937017E+03   -0.89159E-05   -0.10059E-06  4512   0.372E-03    0.117E-03
DAV:  16    -0.162786939635E+03   -0.26189E-05   -0.23679E-07  4288   0.515E-03    0.112E-03
DAV:  17    -0.162786941942E+03   -0.23064E-05   -0.22288E-07  4480   0.213E-03    0.111E-03
DAV:  18    -0.162786942719E+03   -0.77661E-06   -0.63306E-08  4352   0.357E-03
   4 F= -.16278694E+03 E0= -.16277571E+03  d E =-.333165E+00
       N       E                     dE             d eps       ncg     rms          rms(c)
DAV:   1    -0.162794295829E+03   -0.73539E-02   -0.32903E+00  6080   0.363E+00    0.293E-01
DAV:   2    -0.162801025551E+03   -0.67297E-02   -0.77687E-02  6976   0.108E+00    0.186E-01
DAV:   3    -0.162801479512E+03   -0.45396E-03   -0.80330E-03  6368   0.111E+00    0.120E-01
DAV:   4    -0.162801109186E+03    0.37033E-03   -0.39081E-03  8064   0.890E-01    0.556E-02
DAV:   5    -0.162801035791E+03    0.73395E-04   -0.16038E-03  8256   0.292E-01    0.190E-02
DAV:   6    -0.162801083260E+03   -0.47470E-04   -0.51212E-04  6848   0.101E-01    0.118E-02
DAV:   7    -0.162801088608E+03   -0.53474E-05   -0.59619E-05  7584   0.846E-02    0.729E-03
DAV:   8    -0.162801093862E+03   -0.52541E-05   -0.18496E-05  6784   0.350E-02    0.327E-03
DAV:   9    -0.162801097517E+03   -0.36557E-05   -0.68855E-06  5344   0.213E-02    0.170E-03
DAV:  10    -0.162801099892E+03   -0.23751E-05   -0.23090E-06  4704   0.121E-02    0.138E-03
DAV:  11    -0.162801103288E+03   -0.33950E-05   -0.92453E-07  4352   0.802E-03    0.119E-03
DAV:  12    -0.162801105586E+03   -0.22986E-05   -0.51425E-07  4320   0.431E-03    0.111E-03
DAV:  13    -0.162801107415E+03   -0.18289E-05   -0.30946E-07  4320   0.308E-03    0.110E-03
DAV:  14    -0.162801109168E+03   -0.17533E-05   -0.17464E-07  4320   0.316E-03    0.107E-03
DAV:  15    -0.162801110059E+03   -0.89101E-06   -0.11462E-07  4256   0.173E-03
   5 F= -.16280111E+03 E0= -.16278972E+03  d E =-.347332E+00
       N       E                     dE             d eps       ncg     rms          rms(c)
DAV:   1    -0.162796814919E+03    0.42942E-02   -0.54627E+01  6496   0.148E+01    0.676E-01
DAV:   2    -0.162908812445E+03   -0.11200E+00   -0.11759E+00  7040   0.336E+00    0.469E-01
DAV:   3    -0.162914880528E+03   -0.60681E-02   -0.86295E-02  7328   0.231E+00    0.290E-01
DAV:   4    -0.162916890909E+03   -0.20104E-02   -0.21927E-02  7072   0.211E+00    0.165E-01
DAV:   5    -0.162915899989E+03    0.99092E-03   -0.12802E-02  7872   0.127E+00    0.640E-02
DAV:   6    -0.162916181756E+03   -0.28177E-03   -0.54897E-03  7168   0.521E-01    0.326E-02
DAV:   7    -0.162916364511E+03   -0.18275E-03   -0.18450E-03  7168   0.253E-01    0.252E-02
DAV:   8    -0.162916419420E+03   -0.54910E-04   -0.33132E-04  6656   0.195E-01    0.119E-02
DAV:   9    -0.162916469440E+03   -0.50020E-04   -0.23254E-04  7904   0.773E-02    0.774E-03
DAV:  10    -0.162916495694E+03   -0.26254E-04   -0.28952E-05  6656   0.434E-02    0.359E-03
DAV:  11    -0.162916523100E+03   -0.27406E-04   -0.10624E-05  7168   0.225E-02    0.183E-03
DAV:  12    -0.162916532544E+03   -0.94444E-05   -0.30259E-06  6080   0.106E-02    0.152E-03
DAV:  13    -0.162916540843E+03   -0.82994E-05   -0.90153E-07  4256   0.616E-03    0.129E-03
DAV:  14    -0.162916551649E+03   -0.10806E-04   -0.92639E-07  4352   0.613E-03    0.110E-03
DAV:  15    -0.162916554722E+03   -0.30730E-05   -0.28170E-07  4480   0.316E-03    0.106E-03
DAV:  16    -0.162916557085E+03   -0.23633E-05   -0.11428E-07  3840   0.279E-03    0.103E-03
DAV:  17    -0.162916558600E+03   -0.15145E-05   -0.84918E-08  4160   0.132E-03    0.103E-03
DAV:  18    -0.162916559008E+03   -0.40844E-06   -0.26661E-08  4096   0.134E-03
   6 F= -.16291656E+03 E0= -.16290606E+03  d E =-.115449E+00
       N       E                     dE             d eps       ncg     rms          rms(c)
DAV:   1    -0.162905315679E+03    0.11243E-01   -0.13103E+01  6528   0.699E+00    0.324E-01
DAV:   2    -0.162929251545E+03   -0.23936E-01   -0.25226E-01  7552   0.149E+00    0.224E-01
DAV:   3    -0.162929804208E+03   -0.55266E-03   -0.10499E-02  6848   0.853E-01    0.137E-01
DAV:   4    -0.162930254871E+03   -0.45066E-03   -0.41745E-03  6944   0.103E+00    0.754E-02
DAV:   5    -0.162929886235E+03    0.36864E-03   -0.26146E-03  8448   0.589E-01    0.243E-02
DAV:   6    -0.162929974375E+03   -0.88140E-04   -0.12230E-03  7456   0.192E-01    0.156E-02
DAV:   7    -0.162929996359E+03   -0.21984E-04   -0.19500E-04  7168   0.754E-02    0.119E-02
DAV:   8    -0.162930008474E+03   -0.12115E-04   -0.26048E-05  6720   0.823E-02    0.523E-03
DAV:   9    -0.162930017569E+03   -0.90953E-05   -0.17146E-05  7264   0.271E-02    0.290E-03
DAV:  10    -0.162930024408E+03   -0.68386E-05   -0.46793E-06  6048   0.155E-02    0.192E-03
DAV:  11    -0.162930032853E+03   -0.84448E-05   -0.12725E-06  4608   0.125E-02    0.138E-03
DAV:  12    -0.162930036403E+03   -0.35501E-05   -0.76312E-07  4128   0.580E-03    0.123E-03
DAV:  13    -0.162930039395E+03   -0.29921E-05   -0.35230E-07  4064   0.488E-03    0.118E-03
DAV:  14    -0.162930042380E+03   -0.29844E-05   -0.30828E-07  4096   0.387E-03    0.111E-03
DAV:  15    -0.162930043318E+03   -0.93818E-06   -0.15543E-07  4096   0.189E-03
   7 F= -.16293004E+03 E0= -.16292054E+03  d E =-.128933E+00
       N       E                     dE             d eps       ncg     rms          rms(c)
DAV:   1    -0.162924118023E+03    0.59244E-02   -0.35366E+01  6432   0.126E+01    0.578E-01
DAV:   2    -0.162994038643E+03   -0.69921E-01   -0.73704E-01  7360   0.233E+00    0.360E-01
DAV:   3    -0.162994685772E+03   -0.64713E-03   -0.20489E-02  7968   0.924E-01    0.202E-01
DAV:   4    -0.162994644831E+03    0.40941E-04   -0.32183E-03  6688   0.916E-01    0.595E-02
DAV:   5    -0.162994799173E+03   -0.15434E-03   -0.24335E-03  8352   0.549E-01    0.265E-02
DAV:   6    -0.162994810764E+03   -0.11590E-04   -0.11884E-03  7744   0.272E-01    0.169E-02
DAV:   7    -0.162994835933E+03   -0.25170E-04   -0.31400E-04  6848   0.109E-01    0.115E-02
DAV:   8    -0.162994844310E+03   -0.83765E-05   -0.76772E-05  6336   0.599E-02    0.647E-03
DAV:   9    -0.162994848604E+03   -0.42937E-05   -0.20778E-05  6400   0.558E-02    0.282E-03
DAV:  10    -0.162994852665E+03   -0.40616E-05   -0.10520E-05  7680   0.177E-02    0.199E-03
DAV:  11    -0.162994857799E+03   -0.51335E-05   -0.16541E-06  4928   0.962E-03    0.159E-03
DAV:  12    -0.162994861972E+03   -0.41732E-05   -0.10576E-06  4896   0.578E-03    0.146E-03
DAV:  13    -0.162994865185E+03   -0.32133E-05   -0.27883E-07  3968   0.578E-03    0.139E-03
DAV:  14    -0.162994868266E+03   -0.30809E-05   -0.24343E-07  4096   0.265E-03    0.133E-03
DAV:  15    -0.162994870063E+03   -0.17970E-05   -0.13554E-07  4128   0.233E-03    0.131E-03
DAV:  16    -0.162994870909E+03   -0.84621E-06   -0.37396E-08  4352   0.184E-03
   8 F= -.16299487E+03 E0= -.16298664E+03  d E =-.648276E-01
       N       E                     dE             d eps       ncg     rms          rms(c)
DAV:   1    -0.162989424982E+03    0.54451E-02   -0.61896E+00  6432   0.523E+00    0.242E-01
DAV:   2    -0.163000941897E+03   -0.11517E-01   -0.12200E-01  7264   0.953E-01    0.152E-01
DAV:   3    -0.163001086630E+03   -0.14473E-03   -0.39296E-03  7712   0.461E-01    0.845E-02
DAV:   4    -0.163001088497E+03   -0.18669E-05   -0.63463E-04  6688   0.450E-01    0.255E-02
DAV:   5    -0.163001119887E+03   -0.31390E-04   -0.49436E-04  7808   0.235E-01    0.112E-02
DAV:   6    -0.163001127476E+03   -0.75887E-05   -0.25668E-04  7872   0.127E-01    0.770E-03
DAV:   7    -0.163001135451E+03   -0.79754E-05   -0.90309E-05  6848   0.470E-02    0.595E-03
DAV:   8    -0.163001136940E+03   -0.14890E-05   -0.11899E-05  6432   0.269E-02    0.336E-03
DAV:   9    -0.163001137963E+03   -0.10231E-05   -0.41026E-06  5696   0.192E-02    0.161E-03
DAV:  10    -0.163001138772E+03   -0.80880E-06   -0.12038E-06  4352   0.914E-03
   9 F= -.16300114E+03 E0= -.16299335E+03  d E =-.710955E-01
       N       E                     dE             d eps       ncg     rms          rms(c)
DAV:   1    -0.162997371745E+03    0.37662E-02   -0.27563E+01  6400   0.115E+01    0.505E-01
DAV:   2    -0.163046759573E+03   -0.49388E-01   -0.52633E-01  7840   0.208E+00    0.293E-01
DAV:   3    -0.163047038693E+03   -0.27912E-03   -0.14549E-02  7360   0.819E-01    0.153E-01
DAV:   4    -0.163046999255E+03    0.39438E-04   -0.28712E-03  6528   0.850E-01    0.401E-02
DAV:   5    -0.163047173801E+03   -0.17455E-03   -0.20746E-03  8448   0.345E-01    0.229E-02
DAV:   6    -0.163047202057E+03   -0.28256E-04   -0.62102E-04  8448   0.213E-01    0.176E-02
DAV:   7    -0.163047211152E+03   -0.90948E-05   -0.87833E-05  6752   0.592E-02    0.121E-02
DAV:   8    -0.163047217292E+03   -0.61400E-05   -0.36041E-05  6560   0.595E-02    0.468E-03
DAV:   9    -0.163047219753E+03   -0.24608E-05   -0.10261E-05  5920   0.329E-02    0.202E-03
DAV:  10    -0.163047222144E+03   -0.23918E-05   -0.49039E-06  6176   0.120E-02    0.141E-03
DAV:  11    -0.163047223883E+03   -0.17384E-05   -0.15129E-06  5024   0.886E-03    0.119E-03
DAV:  12    -0.163047225526E+03   -0.16427E-05   -0.23643E-07  4000   0.730E-03    0.104E-03
DAV:  13    -0.163047227088E+03   -0.15621E-05   -0.25032E-07  3904   0.374E-03    0.100E-03
DAV:  14    -0.163047228152E+03   -0.10642E-05   -0.13288E-07  4000   0.273E-03    0.987E-04
DAV:  15    -0.163047229769E+03   -0.16170E-05   -0.75280E-08  4000   0.208E-03    0.970E-04
DAV:  16    -0.163047230318E+03   -0.54957E-06   -0.46708E-08  4064   0.222E-03
  10 F= -.16304723E+03 E0= -.16303973E+03  d E =-.460915E-01
       N       E                     dE             d eps       ncg     rms          rms(c)
DAV:   1    -0.163043396847E+03    0.38329E-02   -0.45048E+00  6464   0.464E+00    0.202E-01
DAV:   2    -0.163051219328E+03   -0.78225E-02   -0.83481E-02  7936   0.827E-01    0.118E-01
DAV:   3    -0.163051279172E+03   -0.59844E-04   -0.25109E-03  7904   0.349E-01    0.622E-02
DAV:   4    -0.163051266852E+03    0.12320E-04   -0.37546E-04  6624   0.310E-01    0.175E-02
DAV:   5    -0.163051284067E+03   -0.17215E-04   -0.28833E-04  8160   0.166E-01    0.105E-02
DAV:   6    -0.163051279915E+03    0.41520E-05   -0.95099E-05  7360   0.123E-01    0.558E-03
DAV:   7    -0.163051285111E+03   -0.51959E-05   -0.40744E-05  7168   0.308E-02    0.379E-03
DAV:   8    -0.163051286823E+03   -0.17125E-05   -0.10829E-05  6272   0.289E-02    0.243E-03
DAV:   9    -0.163051287419E+03   -0.59557E-06   -0.13885E-06  4704   0.181E-02
  11 F= -.16305129E+03 E0= -.16304384E+03  d E =-.501486E-01
       N       E                     dE             d eps       ncg     rms          rms(c)
DAV:   1    -0.163026300907E+03    0.24986E-01   -0.35983E+01  6464   0.135E+01    0.501E-01
DAV:   2    -0.163091548111E+03   -0.65247E-01   -0.67856E-01  7936   0.229E+00    0.299E-01
DAV:   3    -0.163092109325E+03   -0.56121E-03   -0.16434E-02  6816   0.939E-01    0.179E-01
DAV:   4    -0.163092773236E+03   -0.66391E-03   -0.69168E-03  7008   0.133E+00    0.907E-02
DAV:   5    -0.163092106285E+03    0.66695E-03   -0.43943E-03  7936   0.884E-01    0.293E-02
DAV:   6    -0.163092265886E+03   -0.15960E-03   -0.20516E-03  8064   0.298E-01    0.242E-02
DAV:   7    -0.163092313194E+03   -0.47308E-04   -0.53688E-04  7648   0.853E-02    0.190E-02
DAV:   8    -0.163092313933E+03   -0.73877E-06   -0.32157E-05  6880   0.795E-02    0.843E-03
DAV:   9    -0.163092318956E+03   -0.50228E-05   -0.35282E-05  6592   0.425E-02    0.416E-03
DAV:  10    -0.163092320720E+03   -0.17648E-05   -0.60894E-06  5920   0.308E-02    0.247E-03
DAV:  11    -0.163092323586E+03   -0.28657E-05   -0.16512E-06  4672   0.205E-02    0.131E-03
DAV:  12    -0.163092325593E+03   -0.20073E-05   -0.35080E-06  5760   0.920E-03    0.112E-03
DAV:  13    -0.163092326968E+03   -0.13749E-05   -0.43012E-07  4096   0.786E-03    0.850E-04
DAV:  14    -0.163092329603E+03   -0.26352E-05   -0.24089E-07  4064   0.471E-03    0.657E-04
DAV:  15    -0.163092330596E+03   -0.99219E-06   -0.16064E-07  4256   0.309E-03
  12 F= -.16309233E+03 E0= -.16308498E+03  d E =-.410432E-01
       N       E                     dE             d eps       ncg     rms          rms(c)
DAV:   1    -0.163077407518E+03    0.14922E-01   -0.12074E+01  6496   0.775E+00    0.288E-01
DAV:   2    -0.163098529932E+03   -0.21122E-01   -0.21993E-01  7872   0.130E+00    0.172E-01
DAV:   3    -0.163098729336E+03   -0.19940E-03   -0.55040E-03  7008   0.571E-01    0.103E-01
DAV:   4    -0.163098952211E+03   -0.22287E-03   -0.23021E-03  6912   0.774E-01    0.517E-02
DAV:   5    -0.163098738261E+03    0.21395E-03   -0.14938E-03  8224   0.516E-01    0.176E-02
DAV:   6    -0.163098783202E+03   -0.44940E-04   -0.60465E-04  7712   0.170E-01    0.137E-02
DAV:   7    -0.163098797343E+03   -0.14141E-04   -0.15903E-04  7648   0.481E-02    0.103E-02
DAV:   8    -0.163098798947E+03   -0.16038E-05   -0.14472E-05  7136   0.420E-02    0.431E-03
DAV:   9    -0.163098800845E+03   -0.18978E-05   -0.13426E-05  6560   0.263E-02    0.254E-03
DAV:  10    -0.163098801516E+03   -0.67122E-06   -0.20193E-06  5376   0.173E-02
  13 F= -.16309880E+03 E0= -.16309144E+03  d E =-.475141E-01
       N       E                     dE             d eps       ncg     rms          rms(c)
DAV:   1    -0.163050207119E+03    0.48594E-01   -0.46941E+01  6592   0.156E+01    0.521E-01
DAV:   2    -0.163132933490E+03   -0.82726E-01   -0.85848E-01  8000   0.275E+00    0.304E-01
DAV:   3    -0.163135212377E+03   -0.22789E-02   -0.35951E-02  7232   0.158E+00    0.191E-01
DAV:   4    -0.163135690849E+03   -0.47847E-03   -0.88144E-03  6976   0.155E+00    0.109E-01
DAV:   5    -0.163135340765E+03    0.35008E-03   -0.61408E-03  8832   0.990E-01    0.460E-02
DAV:   6    -0.163135503213E+03   -0.16245E-03   -0.27086E-03  7904   0.403E-01    0.261E-02
DAV:   7    -0.163135578102E+03   -0.74889E-04   -0.82600E-04  7616   0.132E-01    0.179E-02
DAV:   8    -0.163135589996E+03   -0.11894E-04   -0.11297E-04  6560   0.727E-02    0.842E-03
DAV:   9    -0.163135597819E+03   -0.78232E-05   -0.61326E-05  6528   0.671E-02    0.540E-03
DAV:  10    -0.163135601173E+03   -0.33532E-05   -0.11931E-05  6368   0.447E-02    0.312E-03
DAV:  11    -0.163135607905E+03   -0.67327E-05   -0.37789E-06  5696   0.382E-02    0.165E-03
DAV:  12    -0.163135612245E+03   -0.43401E-05   -0.74373E-06  6496   0.145E-02    0.146E-03
DAV:  13    -0.163135616372E+03   -0.41269E-05   -0.15726E-06  4960   0.851E-03    0.118E-03
DAV:  14    -0.163135621658E+03   -0.52861E-05   -0.50528E-07  4192   0.630E-03    0.101E-03
DAV:  15    -0.163135623383E+03   -0.17249E-05   -0.15537E-07  4448   0.579E-03    0.952E-04
DAV:  16    -0.163135626695E+03   -0.33118E-05   -0.16210E-07  4000   0.552E-03    0.873E-04
DAV:  17    -0.163135628563E+03   -0.18675E-05   -0.11877E-07  4288   0.221E-03    0.864E-04
DAV:  18    -0.163135629174E+03   -0.61176E-06   -0.46035E-08  4256   0.190E-03
  14 F= -.16313563E+03 E0= -.16312828E+03  d E =-.368277E-01
       N       E                     dE             d eps       ncg     rms          rms(c)
DAV:   1    -0.163124808361E+03    0.10820E-01   -0.83812E+00  6688   0.655E+00    0.219E-01
DAV:   2    -0.163138872740E+03   -0.14064E-01   -0.14608E-01  7872   0.113E+00    0.129E-01
DAV:   3    -0.163139199560E+03   -0.32682E-03   -0.53537E-03  6976   0.655E-01    0.808E-02
DAV:   4    -0.163139288502E+03   -0.88943E-04   -0.15798E-03  6976   0.694E-01    0.458E-02
DAV:   5    -0.163139221313E+03    0.67190E-04   -0.11522E-03  9504   0.422E-01    0.181E-02
DAV:   6    -0.163139252708E+03   -0.31395E-04   -0.46026E-04  8480   0.142E-01    0.115E-02
DAV:   7    -0.163139259472E+03   -0.67638E-05   -0.77449E-05  6944   0.406E-02    0.779E-03
DAV:   8    -0.163139260917E+03   -0.14453E-05   -0.13313E-05  6656   0.311E-02    0.336E-03
DAV:   9    -0.163139261911E+03   -0.99426E-06   -0.82471E-06  5856   0.260E-02
  15 F= -.16313926E+03 E0= -.16313189E+03  d E =-.404604E-01
       N       E                     dE             d eps       ncg     rms          rms(c)
DAV:   1    -0.163129346093E+03    0.99148E-02   -0.16822E+01  6400   0.945E+00    0.343E-01
DAV:   2    -0.163157094781E+03   -0.27749E-01   -0.29304E-01  7648   0.180E+00    0.202E-01
DAV:   3    -0.163157876283E+03   -0.78150E-03   -0.14132E-02  7040   0.108E+00    0.111E-01
DAV:   4    -0.163157979907E+03   -0.10362E-03   -0.28129E-03  6464   0.838E-01    0.455E-02
DAV:   5    -0.163158197800E+03   -0.21789E-03   -0.29435E-03  9376   0.552E-01    0.311E-02
DAV:   6    -0.163158169037E+03    0.28763E-04   -0.75858E-04  8416   0.325E-01    0.166E-02
DAV:   7    -0.163158195967E+03   -0.26930E-04   -0.24774E-04  6784   0.870E-02    0.992E-03
DAV:   8    -0.163158204204E+03   -0.82372E-05   -0.53761E-05  7104   0.719E-02    0.627E-03
DAV:   9    -0.163158207851E+03   -0.36470E-05   -0.90936E-06  5760   0.419E-02    0.249E-03
DAV:  10    -0.163158210763E+03   -0.29123E-05   -0.75279E-06  6560   0.147E-02    0.164E-03
DAV:  11    -0.163158212909E+03   -0.21459E-05   -0.23297E-06  5216   0.838E-03    0.139E-03
DAV:  12    -0.163158214893E+03   -0.19836E-05   -0.45669E-07  4064   0.898E-03    0.994E-04
DAV:  13    -0.163158217044E+03   -0.21512E-05   -0.16862E-07  3744   0.703E-03    0.833E-04
DAV:  14    -0.163158218648E+03   -0.16035E-05   -0.18296E-07  4128   0.439E-03    0.807E-04
DAV:  15    -0.163158219891E+03   -0.12437E-05   -0.29860E-07  3776   0.258E-03    0.771E-04
DAV:  16    -0.163158220423E+03   -0.53152E-06   -0.92949E-08  4064   0.217E-03
  16 F= -.16315822E+03 E0= -.16315080E+03  d E =-.189585E-01
       N       E                     dE             d eps       ncg     rms          rms(c)
DAV:   1    -0.163155614400E+03    0.26055E-02   -0.25379E+00  6400   0.366E+00    0.132E-01
DAV:   2    -0.163159709083E+03   -0.40947E-02   -0.43336E-02  7680   0.693E-01    0.782E-02
DAV:   3    -0.163159829448E+03   -0.12036E-03   -0.21584E-03  7040   0.424E-01    0.433E-02
DAV:   4    -0.163159846622E+03   -0.17174E-04   -0.44299E-04  6400   0.340E-01    0.185E-02
DAV:   5    -0.163159872709E+03   -0.26087E-04   -0.45505E-04  9632   0.224E-01    0.121E-02
DAV:   6    -0.163159870556E+03    0.21528E-05   -0.11718E-04  9024   0.117E-01    0.665E-03
DAV:   7    -0.163159873946E+03   -0.33899E-05   -0.25782E-05  6688   0.344E-02    0.365E-03
DAV:   8    -0.163159875562E+03   -0.16166E-05   -0.77275E-06  5568   0.222E-02    0.224E-03
DAV:   9    -0.163159876324E+03   -0.76107E-06   -0.11736E-06  4160   0.164E-02
  17 F= -.16315988E+03 E0= -.16315244E+03  d E =-.206144E-01
       N       E                     dE             d eps       ncg     rms          rms(c)
DAV:   1    -0.163155307334E+03    0.45682E-02   -0.10061E+01  6400   0.720E+00    0.328E-01
DAV:   2    -0.163172757803E+03   -0.17450E-01   -0.18674E-01  7680   0.138E+00    0.192E-01
DAV:   3    -0.163173128700E+03   -0.37090E-03   -0.84006E-03  7104   0.749E-01    0.107E-01
DAV:   4    -0.163173339330E+03   -0.21063E-03   -0.25398E-03  6752   0.803E-01    0.500E-02
DAV:   5    -0.163173153034E+03    0.18630E-03   -0.16371E-03  7488   0.626E-01    0.206E-02
DAV:   6    -0.163173208048E+03   -0.55014E-04   -0.85809E-04  8192   0.236E-01    0.152E-02
DAV:   7    -0.163173234869E+03   -0.26821E-04   -0.28142E-04  7040   0.568E-02    0.128E-02
DAV:   8    -0.163173235783E+03   -0.91390E-06   -0.16193E-05  7552   0.288E-02    0.908E-03
DAV:   9    -0.163173236883E+03   -0.11001E-05   -0.46649E-06  6176   0.434E-02    0.300E-03
DAV:  10    -0.163173238041E+03   -0.11586E-05   -0.61852E-06  6784   0.146E-02    0.264E-03
DAV:  11    -0.163173238529E+03   -0.48798E-06   -0.17941E-06  4928   0.829E-03
  18 F= -.16317324E+03 E0= -.16316573E+03  d E =-.133622E-01
       N       E                     dE             d eps       ncg     rms          rms(c)
DAV:   1    -0.163172295634E+03    0.94241E-03   -0.10251E+00  6400   0.230E+00    0.105E-01
DAV:   2    -0.163174047326E+03   -0.17517E-02   -0.18818E-02  7552   0.435E-01    0.614E-02
DAV:   3    -0.163174083594E+03   -0.36268E-04   -0.83974E-04  6912   0.236E-01    0.338E-02
DAV:   4    -0.163174102611E+03   -0.19017E-04   -0.24756E-04  6848   0.241E-01    0.150E-02
DAV:   5    -0.163174089232E+03    0.13379E-04   -0.15205E-04  7712   0.195E-01    0.660E-03
DAV:   6    -0.163174094849E+03   -0.56177E-05   -0.85088E-05  8608   0.775E-02    0.473E-03
DAV:   7    -0.163174098358E+03   -0.35088E-05   -0.33243E-05  7072   0.186E-02    0.415E-03
DAV:   8    -0.163174098823E+03   -0.46502E-06   -0.16354E-06  5024   0.111E-02
  19 F= -.16317410E+03 E0= -.16316657E+03  d E =-.142225E-01
       N       E                     dE             d eps       ncg     rms          rms(c)
DAV:   1    -0.163161855575E+03    0.12243E-01   -0.12379E+01  6560   0.757E+00    0.329E-01
DAV:   2    -0.163182814165E+03   -0.20959E-01   -0.22454E-01  7872   0.149E+00    0.205E-01
DAV:   3    -0.163183401698E+03   -0.58753E-03   -0.10567E-02  7072   0.744E-01    0.121E-01
DAV:   4    -0.163183728963E+03   -0.32727E-03   -0.30468E-03  6720   0.936E-01    0.605E-02
DAV:   5    -0.163183468808E+03    0.26016E-03   -0.20694E-03  8608   0.675E-01    0.258E-02
DAV:   6    -0.163183499283E+03   -0.30476E-04   -0.71309E-04  8032   0.241E-01    0.159E-02
DAV:   7    -0.163183524430E+03   -0.25147E-04   -0.27142E-04  7584   0.803E-02    0.104E-02
DAV:   8    -0.163183531246E+03   -0.68166E-05   -0.41890E-05  6624   0.428E-02    0.464E-03
DAV:   9    -0.163183536477E+03   -0.52301E-05   -0.23059E-05  6688   0.417E-02    0.317E-03
DAV:  10    -0.163183538517E+03   -0.20402E-05   -0.39447E-06  5728   0.268E-02    0.188E-03
DAV:  11    -0.163183542710E+03   -0.41937E-05   -0.10200E-06  4256   0.230E-02    0.109E-03
DAV:  12    -0.163183544876E+03   -0.21652E-05   -0.21365E-06  5408   0.804E-03    0.106E-03
DAV:  13    -0.163183546392E+03   -0.15163E-05   -0.11380E-06  3936   0.910E-03    0.932E-04
DAV:  14    -0.163183548660E+03   -0.22678E-05   -0.25687E-07  4096   0.750E-03    0.858E-04
DAV:  15    -0.163183549351E+03   -0.69148E-06   -0.22323E-07  4448   0.325E-03
  20 F= -.16318355E+03 E0= -.16317590E+03  d E =-.945053E-02
       N       E                     dE             d eps       ncg     rms          rms(c)
DAV:   1    -0.163183526522E+03    0.22137E-04   -0.26077E-02  6720   0.345E-01    0.150E-02
DAV:   2    -0.163183568610E+03   -0.42088E-04   -0.46011E-04  7776   0.679E-02    0.942E-03
DAV:   3    -0.163183569817E+03   -0.12065E-05   -0.20912E-05  6880   0.351E-02    0.562E-03
DAV:   4    -0.163183570717E+03   -0.90021E-06   -0.72999E-06  6752   0.478E-02    0.290E-03
DAV:   5    -0.163183570456E+03    0.26143E-06   -0.33740E-06  4736   0.319E-02    0.132E-03
DAV:   6    -0.163183570753E+03   -0.29715E-06   -0.16202E-06  4800   0.116E-02
  21 F= -.16318357E+03 E0= -.16317592E+03  d E =-.947193E-02
       N       E                     dE             d eps       ncg     rms          rms(c)
DAV:   1    -0.163182377892E+03    0.11926E-02   -0.47429E+00  6368   0.484E+00    0.211E-01
DAV:   2    -0.163189523273E+03   -0.71454E-02   -0.80063E-02  7648   0.916E-01    0.124E-01
DAV:   3    -0.163189651183E+03   -0.12791E-03   -0.39837E-03  6976   0.580E-01    0.636E-02
DAV:   4    -0.163189705672E+03   -0.54489E-04   -0.10616E-03  6400   0.461E-01    0.262E-02
DAV:   5    -0.163189716160E+03   -0.10487E-04   -0.69011E-04  8512   0.335E-01    0.168E-02
DAV:   6    -0.163189719176E+03   -0.30166E-05   -0.27550E-04  8448   0.166E-01    0.957E-03
DAV:   7    -0.163189733228E+03   -0.14052E-04   -0.11664E-04  7328   0.516E-02    0.643E-03
DAV:   8    -0.163189737486E+03   -0.42576E-05   -0.14775E-05  6208   0.371E-02    0.358E-03
DAV:   9    -0.163189741188E+03   -0.37028E-05   -0.29366E-06  4768   0.227E-02    0.143E-03
DAV:  10    -0.163189744065E+03   -0.28767E-05   -0.29183E-06  5408   0.940E-03    0.123E-03
DAV:  11    -0.163189745856E+03   -0.17910E-05   -0.59614E-07  4256   0.670E-03    0.109E-03
DAV:  12    -0.163189748645E+03   -0.27883E-05   -0.19851E-07  4096   0.555E-03    0.927E-04
DAV:  13    -0.163189750969E+03   -0.23243E-05   -0.19310E-07  4192   0.321E-03    0.885E-04
DAV:  14    -0.163189752199E+03   -0.12304E-05   -0.13947E-07  3840   0.275E-03    0.857E-04
DAV:  15    -0.163189753493E+03   -0.12932E-05   -0.77461E-08  4096   0.185E-03    0.845E-04
DAV:  16    -0.163189754016E+03   -0.52377E-06   -0.37845E-08  3872   0.145E-03
  22 F= -.16318975E+03 E0= -.16318198E+03  d E =-.618326E-02
       N       E                     dE             d eps       ncg     rms          rms(c)
DAV:   1    -0.163189563059E+03    0.19043E-03   -0.29767E-01  6368   0.121E+00    0.528E-02
DAV:   2    -0.163190002226E+03   -0.43917E-03   -0.49546E-03  7488   0.227E-01    0.310E-02
DAV:   3    -0.163190011048E+03   -0.88221E-05   -0.26819E-04  7040   0.148E-01    0.160E-02
DAV:   4    -0.163190013790E+03   -0.27411E-05   -0.69021E-05  6528   0.123E-01    0.694E-03
DAV:   5    -0.163190014674E+03   -0.88439E-06   -0.47688E-05  8768   0.867E-02    0.448E-03
DAV:   6    -0.163190014714E+03   -0.39814E-07   -0.16806E-05  7936   0.430E-02    0.267E-03
DAV:   7    -0.163190015891E+03   -0.11772E-05   -0.84202E-06  7168   0.134E-02    0.188E-03
DAV:   8    -0.163190016297E+03   -0.40609E-06   -0.78209E-07  4448   0.908E-03
  23 F= -.16319002E+03 E0= -.16318221E+03  d E =-.644554E-02
       N       E                     dE             d eps       ncg     rms          rms(c)
DAV:   1    -0.163185079768E+03    0.49361E-02   -0.76538E+00  6464   0.601E+00    0.231E-01
DAV:   2    -0.163196659899E+03   -0.11580E-01   -0.12651E-01  7776   0.113E+00    0.124E-01
DAV:   3    -0.163197081180E+03   -0.42128E-03   -0.69727E-03  7424   0.653E-01    0.679E-02
DAV:   4    -0.163197142426E+03   -0.61246E-04   -0.12496E-03  6912   0.501E-01    0.320E-02
DAV:   5    -0.163197218092E+03   -0.75666E-04   -0.91446E-04  8800   0.307E-01    0.184E-02
DAV:   6    -0.163197205575E+03    0.12517E-04   -0.25964E-04  7744   0.188E-01    0.984E-03
DAV:   7    -0.163197218235E+03   -0.12660E-04   -0.12002E-04  7008   0.599E-02    0.618E-03
DAV:   8    -0.163197221536E+03   -0.33015E-05   -0.20503E-05  6688   0.381E-02    0.316E-03
DAV:   9    -0.163197223496E+03   -0.19595E-05   -0.59780E-06  5440   0.216E-02    0.138E-03
DAV:  10    -0.163197224636E+03   -0.11398E-05   -0.29160E-06  5728   0.103E-02    0.115E-03
DAV:  11    -0.163197225651E+03   -0.10151E-05   -0.60119E-07  3936   0.782E-03    0.941E-04
DAV:  12    -0.163197226786E+03   -0.11350E-05   -0.33294E-07  4000   0.313E-03    0.900E-04
DAV:  13    -0.163197227521E+03   -0.73554E-06   -0.23207E-07  4064   0.338E-03
  24 F= -.16319723E+03 E0= -.16318916E+03  d E =-.721122E-02
       N       E                     dE             d eps       ncg     rms          rms(c)
DAV:   1    -0.163184470914E+03    0.12756E-01   -0.10059E+01  6464   0.691E+00    0.263E-01
DAV:   2    -0.163199885242E+03   -0.15414E-01   -0.16744E-01  7680   0.127E+00    0.143E-01
DAV:   3    -0.163200447140E+03   -0.56190E-03   -0.91857E-03  7808   0.740E-01    0.784E-02
DAV:   4    -0.163200531812E+03   -0.84673E-04   -0.15589E-03  6912   0.574E-01    0.384E-02
DAV:   5    -0.163200609181E+03   -0.77369E-04   -0.11948E-03  8736   0.396E-01    0.223E-02
DAV:   6    -0.163200587062E+03    0.22119E-04   -0.35954E-04  7712   0.220E-01    0.107E-02
DAV:   7    -0.163200609041E+03   -0.21979E-04   -0.20988E-04  7008   0.667E-02    0.732E-03
DAV:   8    -0.163200612637E+03   -0.35953E-05   -0.22928E-05  6880   0.400E-02    0.390E-03
DAV:   9    -0.163200615100E+03   -0.24634E-05   -0.67511E-06  5760   0.274E-02    0.161E-03
DAV:  10    -0.163200616476E+03   -0.13761E-05   -0.41659E-06  5568   0.152E-02    0.129E-03
DAV:  11    -0.163200617498E+03   -0.10215E-05   -0.10266E-06  4256   0.101E-02    0.997E-04
DAV:  12    -0.163200619235E+03   -0.17375E-05   -0.29315E-07  3904   0.689E-03    0.902E-04
DAV:  13    -0.163200620057E+03   -0.82160E-06   -0.46879E-07  4352   0.460E-03
  25 F= -.16320062E+03 E0= -.16319215E+03  d E =-.106038E-01
       N       E                     dE             d eps       ncg     rms          rms(c)
DAV:   1    -0.163202218801E+03   -0.15996E-02   -0.14263E+00  6560   0.251E+00    0.885E-02
DAV:   2    -0.163204269531E+03   -0.20507E-02   -0.22495E-02  7648   0.457E-01    0.459E-02
DAV:   3    -0.163204353560E+03   -0.84029E-04   -0.12555E-03  7616   0.246E-01    0.255E-02
DAV:   4    -0.163204368026E+03   -0.14467E-04   -0.20426E-04  6880   0.204E-01    0.139E-02
DAV:   5    -0.163204373508E+03   -0.54813E-05   -0.14511E-04  8160   0.140E-01    0.796E-03
DAV:   6    -0.163204373286E+03    0.22151E-06   -0.45619E-05  8160   0.678E-02    0.408E-03
DAV:   7    -0.163204375775E+03   -0.24890E-05   -0.20188E-05  7008   0.233E-02    0.241E-03
DAV:   8    -0.163204376643E+03   -0.86814E-06   -0.33384E-06  5728   0.136E-02
  26 F= -.16320438E+03 E0= -.16319574E+03  d E =-.375659E-02
       N       E                     dE             d eps       ncg     rms          rms(c)
DAV:   1    -0.163195107085E+03    0.92687E-02   -0.12859E+01  6464   0.758E+00    0.266E-01
DAV:   2    -0.163214626132E+03   -0.19519E-01   -0.21205E-01  7680   0.138E+00    0.139E-01
DAV:   3    -0.163215353570E+03   -0.72744E-03   -0.11029E-02  7712   0.779E-01    0.785E-02
DAV:   4    -0.163215515228E+03   -0.16166E-03   -0.21962E-03  7040   0.684E-01    0.477E-02
DAV:   5    -0.163215509426E+03    0.58021E-05   -0.15619E-03  8288   0.473E-01    0.251E-02
DAV:   6    -0.163215520617E+03   -0.11191E-04   -0.44568E-04  7168   0.175E-01    0.125E-02
DAV:   7    -0.163215542745E+03   -0.22128E-04   -0.20468E-04  7200   0.711E-02    0.780E-03
DAV:   8    -0.163215547745E+03   -0.50007E-05   -0.28963E-05  6720   0.564E-02    0.374E-03
DAV:   9    -0.163215551126E+03   -0.33809E-05   -0.11022E-05  6592   0.328E-02    0.202E-03
DAV:  10    -0.163215553692E+03   -0.25655E-05   -0.68001E-06  6112   0.165E-02    0.146E-03
DAV:  11    -0.163215555795E+03   -0.21031E-05   -0.15181E-06  4576   0.115E-02    0.992E-04
DAV:  12    -0.163215557855E+03   -0.20605E-05   -0.62295E-07  4032   0.699E-03    0.835E-04
DAV:  13    -0.163215559142E+03   -0.12864E-05   -0.66287E-07  4160   0.511E-03    0.790E-04
DAV:  14    -0.163215560455E+03   -0.13127E-05   -0.20458E-07  3904   0.505E-03    0.727E-04
DAV:  15    -0.163215561304E+03   -0.84916E-06   -0.12884E-07  4160   0.229E-03
  27 F= -.16321556E+03 E0= -.16320631E+03  d E =-.149412E-01
       N       E                     dE             d eps       ncg     rms          rms(c)
DAV:   1    -0.163142939804E+03    0.72621E-01   -0.51779E+01  6528   0.154E+01    0.536E-01
DAV:   2    -0.163232937810E+03   -0.89998E-01   -0.96092E-01  7808   0.287E+00    0.281E-01
DAV:   3    -0.163236451527E+03   -0.35137E-02   -0.49534E-02  7776   0.195E+00    0.174E-01
DAV:   4    -0.163236857462E+03   -0.40594E-03   -0.12975E-02  6976   0.163E+00    0.118E-01
DAV:   5    -0.163236547067E+03    0.31039E-03   -0.60656E-03  7584   0.933E-01    0.513E-02
DAV:   6    -0.163236852138E+03   -0.30507E-03   -0.35369E-03  7360   0.318E-01    0.264E-02
DAV:   7    -0.163236916097E+03   -0.63959E-04   -0.68137E-04  7168   0.173E-01    0.186E-02
DAV:   8    -0.163236931682E+03   -0.15585E-04   -0.14131E-04  7200   0.127E-01    0.819E-03
DAV:   9    -0.163236945936E+03   -0.14254E-04   -0.84486E-05  8352   0.532E-02    0.388E-03
DAV:  10    -0.163236951737E+03   -0.58007E-05   -0.14793E-05  6016   0.243E-02    0.278E-03
DAV:  11    -0.163236957849E+03   -0.61120E-05   -0.26281E-06  5120   0.282E-02    0.142E-03
DAV:  12    -0.163236962187E+03   -0.43378E-05   -0.28577E-06  5376   0.774E-03    0.120E-03
DAV:  13    -0.163236965160E+03   -0.29735E-05   -0.45104E-07  3968   0.777E-03    0.959E-04
DAV:  14    -0.163236969631E+03   -0.44711E-05   -0.39425E-07  4192   0.687E-03    0.825E-04
DAV:  15    -0.163236970504E+03   -0.87304E-06   -0.25779E-07  4480   0.397E-03
  28 F= -.16323697E+03 E0= -.16322610E+03  d E =-.363504E-01
       N       E                     dE             d eps       ncg     rms          rms(c)
DAV:   1    -0.162827810375E+03    0.40916E+00   -0.21448E+02  7008   0.328E+01    0.106E+00
DAV:   2    -0.163239883189E+03   -0.41207E+00   -0.43186E+00  7008   0.579E+00    0.565E-01
DAV:   3    -0.163267281607E+03   -0.27398E-01   -0.34011E-01  7936   0.527E+00    0.392E-01
DAV:   4    -0.163266895727E+03    0.38588E-03   -0.91193E-02  7168   0.329E+00    0.255E-01
DAV:   5    -0.163267817820E+03   -0.92209E-03   -0.34402E-02  7424   0.188E+00    0.135E-01
DAV:   6    -0.163269446965E+03   -0.16291E-02   -0.18444E-02  7296   0.747E-01    0.600E-02
DAV:   7    -0.163269745624E+03   -0.29866E-03   -0.32954E-03  7360   0.451E-01    0.350E-02
DAV:   8    -0.163269814828E+03   -0.69204E-04   -0.81897E-04  6976   0.276E-01    0.175E-02
DAV:   9    -0.163269867068E+03   -0.52240E-04   -0.46376E-04  8032   0.145E-01    0.733E-03
DAV:  10    -0.163269893458E+03   -0.26391E-04   -0.17154E-04  7520   0.580E-02    0.615E-03
DAV:  11    -0.163269905041E+03   -0.11583E-04   -0.12311E-05  6112   0.371E-02    0.350E-03
DAV:  12    -0.163269922333E+03   -0.17293E-04   -0.53829E-06  6208   0.218E-02    0.175E-03
DAV:  13    -0.163269929580E+03   -0.72465E-05   -0.27819E-06  5952   0.106E-02    0.140E-03
DAV:  14    -0.163269938270E+03   -0.86908E-05   -0.88059E-07  4224   0.913E-03    0.119E-03
DAV:  15    -0.163269947270E+03   -0.89995E-05   -0.78574E-07  4352   0.395E-03    0.106E-03
DAV:  16    -0.163269949421E+03   -0.21515E-05   -0.20537E-07  4480   0.324E-03    0.951E-04
DAV:  17    -0.163269952458E+03   -0.30366E-05   -0.13087E-07  4064   0.336E-03    0.898E-04
DAV:  18    -0.163269954409E+03   -0.19506E-05   -0.93337E-08  4192   0.182E-03    0.903E-04
DAV:  19    -0.163269955443E+03   -0.10347E-05   -0.36047E-08  3840   0.130E-03    0.895E-04
DAV:  20    -0.163269956227E+03   -0.78390E-06   -0.19107E-08  4160   0.186E-03
  29 F= -.16326996E+03 E0= -.16325768E+03  d E =-.693362E-01
