    2    2    1    1
  0.2263565E+02  0.4000485E-09  0.4000485E-09  0.4000485E-09  0.5000000E-15
   1.0000000000000000E-004
  CAR 
 unknown system                          
     28     56     18

  0.1262379E-14  0.1262379E-14  0.1262379E-14  0.7513148E-03
      1        -19.822476   1.000000
      2        -19.822476   1.000000
      3        -19.822475   1.000000
      4        -19.786309   1.000000
      5        -19.786309   1.000000
      6        -19.576204   1.000000
      7        -19.576204   1.000000
      8        -19.576203   1.000000
      9        -19.562044   1.000000
     10        -19.562044   1.000000
     11         -7.781010   1.000000
     12          4.989623   1.000000
     13          4.989638   1.000000
     14          4.989638   1.000000
     15          5.027580   0.000000
     16          7.548414   0.000000
     17          7.548421   0.000000
     18          7.548421   0.000000

  0.9090909E-01  0.1256011E-14  0.1254772E-14  0.6010518E-02
      1        -19.827526   1.000000
      2        -19.827525   1.000000
      3        -19.821239   1.000000
      4        -19.779558   1.000000
      5        -19.779558   1.000000
      6        -19.583643   1.000000
      7        -19.583642   1.000000
      8        -19.577767   1.000000
      9        -19.555642   1.000000
     10        -19.555641   1.000000
     11         -7.680063   1.000000
     12          3.308466   1.000000
     13          4.794951   1.000000
     14          4.794964   1.000000
     15          5.993098  -0.000000
     16          7.808866   0.000000
     17          7.808873   0.000000
     18          8.025463   0.000000

  0.1818182E+00  0.1253606E-14  0.1246664E-14  0.6010518E-02
      1        -19.835802   1.000000
      2        -19.835801   1.000000
      3        -19.817738   1.000000
      4        -19.766740   1.000000
      5        -19.766740   1.000000
      6        -19.594556   1.000000
      7        -19.594556   1.000000
      8        -19.582123   1.000000
      9        -19.547185   1.000000
     10        -19.547184   1.000000
     11         -7.381768   1.000000
     12          1.533390   1.000000
     13          4.399663   1.000000
     14          4.399675   1.000000
     15          5.907770   0.000000
     16          8.324915   0.000000
     17          8.324923   0.000000
     18          9.414631   0.000000

  0.2727273E+00  0.1246000E-14  0.1245496E-14  0.6010518E-02
      1        -19.842206   1.000000
      2        -19.842205   1.000000
      3        -19.812906   1.000000
      4        -19.755260   1.000000
      5        -19.755259   1.000000
      6        -19.603198   1.000000
      7        -19.603198   1.000000
      8        -19.587789   1.000000
      9        -19.541003   1.000000
     10        -19.541002   1.000000
     11         -6.904727   1.000000
     12         -0.120389   1.000000
     13          4.020940   1.000000
     14          4.020952   1.000000
     15          5.588842   0.000000
     16          8.692608   0.000000
     17          8.692616   0.000000
     18         11.041003   0.000000

  0.3636364E+00  0.1244146E-14  0.1244328E-14  0.6010518E-02
      1        -19.845796   1.000000
      2        -19.845795   1.000000
      3        -19.808476   1.000000
      4        -19.747861   1.000000
      5        -19.747861   1.000000
      6        -19.608117   1.000000
      7        -19.608116   1.000000
      8        -19.593131   1.000000
      9        -19.537392   1.000000
     10        -19.537390   1.000000
     11         -6.306529   1.000000
     12         -1.527913   1.000000
     13          3.745617   1.000000
     14          3.745628   1.000000
     15          5.331058   0.000000
     16          8.779054   0.000000
     17          8.779062   0.000000
     18         12.238163   0.000000

  0.4545455E+00  0.1258494E-14  0.1243160E-14  0.6010518E-02
      1        -19.847146   1.000000
      2        -19.847144   1.000000
      3        -19.805431   1.000000
      4        -19.744667   1.000000
      5        -19.744667   1.000000
      6        -19.609802   1.000000
      7        -19.609802   1.000000
      8        -19.596355   1.000000
      9        -19.535791   1.000000
     10        -19.535789   1.000000
     11         -5.782139   1.000000
     12         -2.463306   1.000000
     13          3.603313   1.000000
     14          3.603324   1.000000
     15          5.195182   0.000000
     16          8.749977   0.000000
     17          8.749983   0.000000
     18         12.151630   0.000000

  0.9090909E-01  0.9090909E-01  0.1261689E-14  0.4507889E-02
      1        -19.827854   1.000000
      2        -19.825745   1.000000
      3        -19.825745   1.000000
      4        -19.781543   1.000000
      5        -19.772512   1.000000
      6        -19.597944   1.000000
      7        -19.571444   1.000000
      8        -19.571443   1.000000
      9        -19.566439   1.000000
     10        -19.550728   1.000000
     11         -7.646153   1.000000
     12          3.256104   1.000000
     13          4.450995   1.000000
     14          4.451004   1.000000
     15          6.695386  -0.000000
     16          7.159479   0.000000
     17          8.257870   0.000000
     18          8.257876   0.000000

  0.1818182E+00  0.9090909E-01  0.1252435E-14  0.1803156E-01
      1        -19.836745   1.000000
      2        -19.831572   1.000000
      3        -19.822421   1.000000
      4        -19.772642   1.000000
      5        -19.758807   1.000000
      6        -19.612654   1.000000
      7        -19.580818   1.000000
      8        -19.571376   1.000000
      9        -19.557872   1.000000
     10        -19.544085   1.000000
     11         -7.412616   1.000000
     12          1.919490   1.000000
     13          4.014383   1.000000
     14          4.073001   1.000000
     15          6.882274   0.000000
     16          7.331011   0.000000
     17          8.883586   0.000000
     18          9.234350   0.000000

  0.2727273E+00  0.9090909E-01  0.1244328E-14  0.1803156E-01
      1        -19.845713   1.000000
      2        -19.838381   1.000000
      3        -19.814998   1.000000
      4        -19.760826   1.000000
      5        -19.745720   1.000000
      6        -19.623622   1.000000
      7        -19.592019   1.000000
      8        -19.578134   1.000000
      9        -19.548553   1.000000
     10        -19.536450   1.000000
     11         -6.991945   1.000000
     12          0.340644   1.000000
     13          3.609576   1.000000
     14          3.651310   1.000000
     15          6.584083   0.000000
     16          7.941111   0.000000
     17          9.323087   0.000000
     18         10.229251   0.000000

  0.3636364E+00  0.9090909E-01  0.1270915E-14  0.1803156E-01
      1        -19.851873   1.000000
      2        -19.843676   1.000000
      3        -19.806461   1.000000
      4        -19.750711   1.000000
      5        -19.737882   1.000000
      6        -19.628088   1.000000
      7        -19.601609   1.000000
      8        -19.587948   1.000000
      9        -19.541459   1.000000
     10        -19.530634   1.000000
     11         -6.422842   1.000000
     12         -1.111345   1.000000
     13          3.179878   1.000000
     14          3.426060   1.000000
     15          6.283489   0.000000
     16          8.351398   0.000000
     17          9.389193   0.000000
     18         11.142204   0.000000

  0.4545455E+00  0.9090909E-01  0.1241992E-14  0.1803156E-01
      1        -19.854723   1.000000
      2        -19.847262   1.000000
      3        -19.799017   1.000000
      4        -19.743018   1.000000
      5        -19.736927   1.000000
      6        -19.624891   1.000000
      7        -19.609743   1.000000
      8        -19.597536   1.000000
      9        -19.536176   1.000000
     10        -19.527881   1.000000
     11         -5.833626   1.000000
     12         -2.222924   1.000000
     13          2.864921   1.000000
     14          3.359514   1.000000
     15          6.081849   0.000000
     16          8.496413   0.000000
     17          9.234776   0.000000
     18         12.153032   0.000000

 -0.4545455E+00  0.9090909E-01  0.1225918E-14  0.1803156E-01
      1        -19.854673   1.000000
      2        -19.849611   1.000000
      3        -19.795682   1.000000
      4        -19.740930   1.000000
      5        -19.737922   1.000000
      6        -19.616511   1.000000
      7        -19.615655   1.000000
      8        -19.604137   1.000000
      9        -19.532685   1.000000
     10        -19.528634   1.000000
     11         -5.611037   1.000000
     12         -2.576905   1.000000
     13          2.696430   1.000000
     14          3.452403   1.000000
     15          6.009979   0.000000
     16          8.619075   0.000000
     17          9.057035   0.000000
     18         12.510797   0.000000

 -0.3636364E+00  0.9090909E-01  0.1252506E-14  0.1803156E-01
      1        -19.851613   1.000000
      2        -19.850235   1.000000
      3        -19.798219   1.000000
      4        -19.747207   1.000000
      5        -19.736589   1.000000
      6        -19.620312   1.000000
      7        -19.608213   1.000000
      8        -19.601238   1.000000
      9        -19.533052   1.000000
     10        -19.531289   1.000000
     11         -6.017806   1.000000
     12         -1.904814   1.000000
     13          2.692601   1.000000
     14          3.691918   1.000000
     15          6.072931   0.000000
     16          8.802122   0.000000
     17          8.907288   0.000000
     18         12.252325   0.000000

 -0.2727273E+00  0.9090909E-01  0.1251337E-14  0.1803156E-01
      1        -19.848463   1.000000
      2        -19.845865   1.000000
      3        -19.805394   1.000000
      4        -19.754719   1.000000
      5        -19.741456   1.000000
      6        -19.618529   1.000000
      7        -19.606135   1.000000
      8        -19.587271   1.000000
      9        -19.540879   1.000000
     10        -19.532637   1.000000
     11         -6.626278   1.000000
     12         -0.650214   1.000000
     13          2.869047   1.000000
     14          4.049504   1.000000
     15          6.256171   0.000000
     16          8.691332   0.000000
     17          8.918200   0.000000
     18         11.105853   0.000000

 -0.1818182E+00  0.9090909E-01  0.1277925E-14  0.1803156E-01
      1        -19.843573   1.000000
      2        -19.837717   1.000000
      3        -19.814164   1.000000
      4        -19.764291   1.000000
      5        -19.752832   1.000000
      6        -19.610324   1.000000
      7        -19.600231   1.000000
      8        -19.573902   1.000000
      9        -19.551859   1.000000
     10        -19.537307   1.000000
     11         -7.152813   1.000000
     12          0.847478   1.000000
     13          3.250167   1.000000
     14          4.464325   1.000000
     15          6.494827   0.000000
     16          8.283418   0.000000
     17          8.576155   0.000000
     18         10.061255   0.000000

 -0.9090909E-01  0.9090909E-01  0.1262879E-14  0.9015778E-02
      1        -19.835663   1.000000
      2        -19.829264   1.000000
      3        -19.820854   1.000000
      4        -19.774534   1.000000
      5        -19.767364   1.000000
      6        -19.597784   1.000000
      7        -19.590911   1.000000
      8        -19.566659   1.000000
      9        -19.561991   1.000000
     10        -19.545155   1.000000
     11         -7.512938   1.000000
     12          2.322412   1.000000
     13          3.914047   1.000000
     14          4.793230   1.000000
     15          6.490934   0.000000
     16          7.850708   0.000000
     17          7.962401   0.000000
     18          9.064713   0.000000

  0.1818182E+00  0.1818182E+00  0.1260999E-14  0.4507889E-02
      1        -19.833862   1.000000
      2        -19.833861   1.000000
      3        -19.831758   1.000000
      4        -19.767744   1.000000
      5        -19.743496   1.000000
      6        -19.633054   1.000000
      7        -19.579146   1.000000
      8        -19.559297   1.000000
      9        -19.559296   1.000000
     10        -19.545746   1.000000
     11         -7.243805   1.000000
     12          1.534443   1.000000
     13          3.555804   1.000000
     14          3.555812   1.000000
     15          6.461576   0.000000
     16          7.843395   0.000000
     17          9.654447   0.000000
     18          9.654455   0.000000

  0.2727273E+00  0.1818182E+00  0.1250099E-14  0.1803156E-01
      1        -19.845162   1.000000
      2        -19.839400   1.000000
      3        -19.822394   1.000000
      4        -19.756812   1.000000
      5        -19.727723   1.000000
      6        -19.649853   1.000000
      7        -19.590572   1.000000
      8        -19.563409   1.000000
      9        -19.549939   1.000000
     10        -19.538571   1.000000
     11         -6.882967   1.000000
     12          0.434285   1.000000
     13          3.035804   1.000000
     14          3.180617   1.000000
     15          6.526115   0.000000
     16          7.876094   0.000000
     17         10.052509   0.000000
     18         10.286028   0.000000

  0.3636364E+00  0.1818182E+00  0.1255869E-14  0.1803156E-01
      1        -19.855679   1.000000
      2        -19.844982   1.000000
      3        -19.808212   1.000000
      4        -19.744727   1.000000
      5        -19.716971   1.000000
      6        -19.659185   1.000000
      7        -19.603419   1.000000
      8        -19.578260   1.000000
      9        -19.540863   1.000000
     10        -19.527364   1.000000
     11         -6.355746   1.000000
     12         -0.840605   1.000000
     13          2.426303   1.000000
     14          2.954784   1.000000
     15          6.700548   0.000000
     16          8.295306   0.000000
     17          9.947596   0.000000
     18         10.484569   0.000000

  0.4545455E+00  0.1818182E+00  0.1240823E-14  0.1803156E-01
      1        -19.863024   1.000000
      2        -19.849456   1.000000
      3        -19.793632   1.000000
      4        -19.733674   1.000000
      5        -19.715528   1.000000
      6        -19.657706   1.000000
      7        -19.616048   1.000000
      8        -19.594311   1.000000
      9        -19.533566   1.000000
     10        -19.519290   1.000000
     11         -5.744422   1.000000
     12         -1.977603   1.000000
     13          1.918493   1.000000
     14          2.902379   1.000000
     15          6.640355   0.000000
     16          8.860598   0.000000
     17         10.317291   0.000000
     18         10.457186   0.000000

 -0.4545455E+00  0.1818182E+00  0.1224750E-14  0.1803156E-01
      1        -19.865978   1.000000
      2        -19.852880   1.000000
      3        -19.783029   1.000000
      4        -19.724553   1.000000
      5        -19.723251   1.000000
      6        -19.646226   1.000000
      7        -19.627677   1.000000
      8        -19.606431   1.000000
      9        -19.528426   1.000000
     10        -19.516247   1.000000
     11         -5.337317   1.000000
     12         -2.599301   1.000000
     13          1.587269   1.000000
     14          3.025818   1.000000
     15          6.631204   0.000000
     16          8.988122   0.000000
     17         10.030857   0.000000
     18         11.840441   0.000000

 -0.3636364E+00  0.1818182E+00  0.1223582E-14  0.1803156E-01
      1        -19.864184   1.000000
      2        -19.854599   1.000000
      3        -19.780432   1.000000
      4        -19.736088   1.000000
      5        -19.719916   1.000000
      6        -19.635411   1.000000
      7        -19.628406   1.000000
      8        -19.611513   1.000000
      9        -19.525827   1.000000
     10        -19.519084   1.000000
     11         -5.577883   1.000000
     12         -2.239123   1.000000
     13          1.470821   1.000000
     14          3.310225   1.000000
     15          6.739166   0.000000
     16          9.110892   0.000000
     17          9.722559   0.000000
     18         12.193182   0.000000

 -0.2727273E+00  0.1818182E+00  0.1250169E-14  0.1803156E-01
      1        -19.857646   1.000000
      2        -19.854006   1.000000
      3        -19.787844   1.000000
      4        -19.748240   1.000000
      5        -19.723984   1.000000
      6        -19.634714   1.000000
      7        -19.614988   1.000000
      8        -19.602900   1.000000
      9        -19.527977   1.000000
     10        -19.526340   1.000000
     11         -6.172925   1.000000
     12         -1.226723   1.000000
     13          1.624216   1.000000
     14          3.717275   1.000000
     15          6.919562   0.000000
     16          9.289990   0.000000
     17          9.317995   0.000000
     18         10.764518   0.000000

 -0.1818182E+00  0.1818182E+00  0.1249001E-14  0.9015778E-02
      1        -19.850233   1.000000
      2        -19.847548   1.000000
      3        -19.801900   1.000000
      4        -19.757130   1.000000
      5        -19.736679   1.000000
      6        -19.624964   1.000000
      7        -19.609014   1.000000
      8        -19.583421   1.000000
      9        -19.541395   1.000000
     10        -19.530175   1.000000
     11         -6.737793   1.000000
     12         -0.086462   1.000000
     13          2.172052   1.000000
     14          4.161892   1.000000
     15          6.985053   0.000000
     16          8.747440   0.000000
     17          8.980607   0.000000
     18         10.146714   0.000000

  0.2727273E+00  0.2727273E+00  0.1260308E-14  0.4507889E-02
      1        -19.843542   1.000000
      2        -19.843542   1.000000
      3        -19.826791   1.000000
      4        -19.746138   1.000000
      5        -19.707982   1.000000
      6        -19.673296   1.000000
      7        -19.599288   1.000000
      8        -19.552701   1.000000
      9        -19.544044   1.000000
     10        -19.544043   1.000000
     11         -6.581163   1.000000
     12         -0.133405   1.000000
     13          2.779739   1.000000
     14          2.779746   1.000000
     15          5.891607   0.000000
     16          7.556600   0.000000
     17         11.236753   0.000000
     18         11.236762   0.000000

  0.3636364E+00  0.2727273E+00  0.1247762E-14  0.1803156E-01
      1        -19.853248   1.000000
      2        -19.848183   1.000000
      3        -19.813562   1.000000
      4        -19.732953   1.000000
      5        -19.692746   1.000000
      6        -19.689297   1.000000
      7        -19.612445   1.000000
      8        -19.569021   1.000000
      9        -19.536340   1.000000
     10        -19.530398   1.000000
     11         -6.102731   1.000000
     12         -1.058825   1.000000
     13          2.230249   1.000000
     14          2.525831   1.000000
     15          6.053046   0.000000
     16          7.381312   0.000000
     17         11.253935   0.000000
     18         11.769007   0.000000

  0.4545455E+00  0.2727273E+00  0.1253533E-14  0.1803156E-01
      1        -19.864145   1.000000
      2        -19.852236   1.000000
      3        -19.793850   1.000000
      4        -19.719606   1.000000
      5        -19.698052   1.000000
      6        -19.682318   1.000000
      7        -19.626968   1.000000
      8        -19.590238   1.000000
      9        -19.529515   1.000000
     10        -19.517634   1.000000
     11         -5.498898   1.000000
     12         -2.023427   1.000000
     13          1.514447   1.000000
     14          2.449583   1.000000
     15          6.267919   0.000000
     16          8.137350   0.000000
     17         10.926996   0.000000
     18         11.734416   0.000000

 -0.4545455E+00  0.2727273E+00  0.1279093E-14  0.1803156E-01
      1        -19.871321   1.000000
      2        -19.855466   1.000000
      3        -19.777640   1.000000
      4        -19.707629   1.000000
      5        -19.696670   1.000000
      6        -19.681090   1.000000
      7        -19.641326   1.000000
      8        -19.607174   1.000000
      9        -19.524677   1.000000
     10        -19.509870   1.000000
     11         -4.964785   1.000000
     12         -2.736048   1.000000
     13          0.959001   1.000000
     14          2.557640   1.000000
     15          6.362593   0.000000
     16          9.594408   0.000000
     17         10.734370   0.000000
     18         11.402592   0.000000

 -0.3636364E+00  0.2727273E+00  0.1222414E-14  0.1803156E-01
      1        -19.872820   1.000000
      2        -19.857237   1.000000
      3        -19.770765   1.000000
      4        -19.710429   1.000000
      5        -19.701041   1.000000
      6        -19.664426   1.000000
      7        -19.651083   1.000000
      8        -19.614141   1.000000
      9        -19.522266   1.000000
     10        -19.508777   1.000000
     11         -5.025268   1.000000
     12         -2.654310   1.000000
     13          0.705546   1.000000
     14          2.837895   1.000000
     15          6.565896   0.000000
     16         10.412494   0.000000
     17         10.922361   0.000000
     18         11.538519   0.000000

 -0.2727273E+00  0.2727273E+00  0.1221245E-14  0.9015778E-02
      1        -19.867929   1.000000
      2        -19.856916   1.000000
      3        -19.773655   1.000000
      4        -19.733108   1.000000
      5        -19.707811   1.000000
      6        -19.647910   1.000000
      7        -19.636558   1.000000
      8        -19.613291   1.000000
      9        -19.522803   1.000000
     10        -19.515184   1.000000
     11         -5.588761   1.000000
     12         -1.942747   1.000000
     13          0.879223   1.000000
     14          3.253147   1.000000
     15          6.849209   0.000000
     16         10.202850   0.000000
     17         10.505823   0.000000
     18         10.554809   0.000000

  0.3636364E+00  0.3636364E+00  0.1259618E-14  0.4507889E-02
      1        -19.851539   1.000000
      2        -19.851539   1.000000
      3        -19.811627   1.000000
      4        -19.718568   1.000000
      5        -19.714689   1.000000
      6        -19.669734   1.000000
      7        -19.625382   1.000000
      8        -19.570717   1.000000
      9        -19.530549   1.000000
     10        -19.530549   1.000000
     11         -5.671725   1.000000
     12         -1.726223   1.000000
     13          2.233230   1.000000
     14          2.233237   1.000000
     15          5.590438   0.000000
     16          6.671267   0.000000
     17         12.852577   0.000000
     18         12.852586   0.000000

  0.4545455E+00  0.3636364E+00  0.1245426E-14  0.1803156E-01
      1        -19.859222   1.000000
      2        -19.854642   1.000000
      3        -19.794300   1.000000
      4        -19.729469   1.000000
      5        -19.703700   1.000000
      6        -19.654848   1.000000
      7        -19.640529   1.000000
      8        -19.589324   1.000000
      9        -19.525620   1.000000
     10        -19.521303   1.000000
     11         -5.092433   1.000000
     12         -2.516025   1.000000
     13          1.735596   1.000000
     14          2.116439   1.000000
     15          5.830470   0.000000
     16          6.672220   0.000000
     17         12.836755   0.000000
     18         13.221902   0.000000

 -0.4545455E+00  0.3636364E+00  0.1277925E-14  0.1803156E-01
      1        -19.868893   1.000000
      2        -19.856728   1.000000
      3        -19.774510   1.000000
      4        -19.727522   1.000000
      5        -19.689601   1.000000
      6        -19.656206   1.000000
      7        -19.654482   1.000000
      8        -19.609680   1.000000
      9        -19.522250   1.000000
     10        -19.511242   1.000000
     11         -4.486713   1.000000
     12         -3.196302   1.000000
     13          1.035040   1.000000
     14          2.187369   1.000000
     15          6.003672   0.000000
     16          7.820049   0.000000
     17         12.483662   0.000000
     18         12.909694   0.000000

 -0.3636364E+00  0.3636364E+00  0.1276756E-14  0.9015778E-02
      1        -19.874432   1.000000
      2        -19.857794   1.000000
      3        -19.768559   1.000000
      4        -19.701586   1.000000
      5        -19.685412   1.000000
      6        -19.677800   1.000000
      7        -19.663335   1.000000
      8        -19.615480   1.000000
      9        -19.521087   1.000000
     10        -19.506252   1.000000
     11         -4.470016   1.000000
     12         -3.191054   1.000000
     13          0.597121   1.000000
     14          2.438364   1.000000
     15          6.227424   0.000000
     16          9.544054   0.000000
     17         11.975526   0.000000
     18         12.119770   0.000000

  0.4545455E+00  0.4545455E+00  0.1258928E-14  0.4507889E-02
      1        -19.856141   1.000000
      2        -19.856141   1.000000
      3        -19.786669   1.000000
      4        -19.753556   1.000000
      5        -19.687578   1.000000
      6        -19.655696   1.000000
      7        -19.632044   1.000000
      8        -19.598069   1.000000
      9        -19.522835   1.000000
     10        -19.522835   1.000000
     11         -4.537120   1.000000
     12         -3.208563   1.000000
     13          1.953132   1.000000
     14          1.953139   1.000000
     15          5.609762   0.000000
     16          5.973157   0.000000
     17         14.241783   0.000000
     18         14.241794   0.000000

 -0.4545455E+00  0.4545455E+00  0.1276756E-14  0.9015778E-02
      1        -19.861353   1.000000
      2        -19.856904   1.000000
      3        -19.770553   1.000000
      4        -19.760054   1.000000
      5        -19.673153   1.000000
      6        -19.670605   1.000000
      7        -19.624177   1.000000
      8        -19.614564   1.000000
      9        -19.521635   1.000000
     10        -19.517683   1.000000
     11         -3.945090   1.000000
     12         -3.816537   1.000000
     13          1.569711   1.000000
     14          1.977640   1.000000
     15          5.804252   0.000000
     16          6.362202   0.000000
     17         13.949358   0.000000
     18         14.086220   0.000000

  0.2727273E+00  0.1818182E+00  0.9090909E-01  0.1803156E-01
      1        -19.843571   1.000000
      2        -19.837772   1.000000
      3        -19.817798   1.000000
      4        -19.764115   1.000000
      5        -19.743913   1.000000
      6        -19.628536   1.000000
      7        -19.589510   1.000000
      8        -19.568557   1.000000
      9        -19.554066   1.000000
     10        -19.537625   1.000000
     11         -7.116109   1.000000
     12          0.950174   1.000000
     13          3.030160   1.000000
     14          3.989270   1.000000
     15          7.243193   0.000000
     16          7.384862   0.000000
     17          9.402802   0.000000
     18          9.823174   0.000000

  0.3636364E+00  0.1818182E+00  0.9090909E-01  0.3606311E-01
      1        -19.851349   1.000000
      2        -19.845993   1.000000
      3        -19.805931   1.000000
      4        -19.753697   1.000000
      5        -19.730566   1.000000
      6        -19.639913   1.000000
      7        -19.599492   1.000000
      8        -19.582587   1.000000
      9        -19.541346   1.000000
     10        -19.530517   1.000000
     11         -6.641252   1.000000
     12         -0.322749   1.000000
     13          2.383642   1.000000
     14          3.658031   1.000000
     15          7.154051   0.000000
     16          7.982676   0.000000
     17          9.786411   0.000000
     18         10.098429   0.000000

  0.4545455E+00  0.1818182E+00  0.9090909E-01  0.3606311E-01
      1        -19.858401   1.000000
      2        -19.850766   1.000000
      3        -19.793520   1.000000
      4        -19.743822   1.000000
      5        -19.723658   1.000000
      6        -19.643348   1.000000
      7        -19.608073   1.000000
      8        -19.599218   1.000000
      9        -19.532702   1.000000
     10        -19.524328   1.000000
     11         -6.042942   1.000000
     12         -1.573540   1.000000
     13          2.038392   1.000000
     14          3.314608   1.000000
     15          6.947647   0.000000
     16          8.383810   0.000000
     17          9.859564   0.000000
     18         10.877148   0.000000

 -0.4545455E+00  0.1818182E+00  0.9090909E-01  0.3606311E-01
      1        -19.862398   1.000000
      2        -19.852633   1.000000
      3        -19.785447   1.000000
      4        -19.735128   1.000000
      5        -19.724642   1.000000
      6        -19.638352   1.000000
      7        -19.619889   1.000000
      8        -19.607492   1.000000
      9        -19.529078   1.000000
     10        -19.520155   1.000000
     11         -5.511343   1.000000
     12         -2.457490   1.000000
     13          1.889859   1.000000
     14          3.111318   1.000000
     15          6.827933   0.000000
     16          8.411084   0.000000
     17          9.879727   0.000000
     18         12.123377   0.000000

  0.3636364E+00  0.2727273E+00  0.9090909E-01  0.1803156E-01
      1        -19.850436   1.000000
      2        -19.848028   1.000000
      3        -19.812388   1.000000
      4        -19.745488   1.000000
      5        -19.711583   1.000000
      6        -19.666881   1.000000
      7        -19.601717   1.000000
      8        -19.572532   1.000000
      9        -19.538846   1.000000
     10        -19.532509   1.000000
     11         -6.464782   1.000000
     12         -0.453065   1.000000
     13          2.286482   1.000000
     14          2.976622   1.000000
     15          6.675934   0.000000
     16          7.824875   0.000000