       N       E                     dE             d eps       ncg     rms          rms(c)
DAV:   1    -0.900896967407E+01   -0.90090E+01   -0.45745E-05  2518   0.160E-01
DAV:   2    -0.900897031445E+01   -0.64038E-06   -0.64039E-06  2070   0.226E-02
   1 F= -.90089703E+01 E0= -.90089703E+01  d E =0.000000E+00
