PROCAR new format
# of k-points:   56         # of bands:   18         # of ions:    2

 k-point     1 :    0.00000000 0.00000000 0.00000000     weight = 0.00075131

band     1 # energy  -19.82247619 # occ.  2.00000000

ion      s      p      d    tot
    1  0.000  0.001  0.496  0.497
    2  0.000  0.001  0.496  0.497
tot    0.000  0.001  0.993  0.994

band     2 # energy  -19.82247617 # occ.  2.00000000

ion      s      p      d    tot
    1  0.000  0.001  0.496  0.497
    2  0.000  0.001  0.496  0.497
tot    0.000  0.001  0.993  0.994

band     3 # energy  -19.82247526 # occ.  2.00000000

ion      s      p      d    tot
    1  0.000  0.001  0.496  0.497
    2  0.000  0.001  0.496  0.497
tot    0.000  0.001  0.993  0.994

band     4 # energy  -19.78630863 # occ.  2.00000000

ion      s      p      d    tot
    1  0.000  0.000  0.496  0.496
    2  0.000  0.000  0.496  0.496
tot    0.000  0.000  0.992  0.992

band     5 # energy  -19.78630863 # occ.  2.00000000

ion      s      p      d    tot
    1  0.000  0.000  0.496  0.496
    2  0.000  0.000  0.496  0.496
tot    0.000  0.000  0.992  0.992

band     6 # energy  -19.57620374 # occ.  2.00000000

ion      s      p      d    tot
    1  0.000  0.000  0.498  0.498
    2  0.000  0.000  0.498  0.498
tot    0.000  0.001  0.995  0.996

band     7 # energy  -19.57620372 # occ.  2.00000000

ion      s      p      d    tot
    1  0.000  0.000  0.498  0.498
    2  0.000  0.000  0.498  0.498
tot    0.000  0.001  0.995  0.996

band     8 # energy  -19.57620262 # occ.  2.00000000

ion      s      p      d    tot
    1  0.000  0.000  0.498  0.498
    2  0.000  0.000  0.498  0.498
tot    0.000  0.001  0.995  0.996

band     9 # energy  -19.56204378 # occ.  2.00000000

ion      s      p      d    tot
    1  0.000  0.000  0.499  0.499
    2  0.000  0.000  0.499  0.499
tot    0.000  0.000  0.998  0.998

band    10 # energy  -19.56204378 # occ.  2.00000000

ion      s      p      d    tot
    1  0.000  0.000  0.499  0.499
    2  0.000  0.000  0.499  0.499
tot    0.000  0.000  0.998  0.998

band    11 # energy   -7.78100978 # occ.  2.00000000

ion      s      p      d    tot
    1  0.311  0.000  0.000  0.311
    2  0.311  0.000  0.000  0.311
tot    0.621  0.000  0.000  0.621

band    12 # energy    4.98962286 # occ.  2.00000000

ion      s      p      d    tot
    1  0.000  0.308  0.037  0.345
    2  0.000  0.308  0.037  0.345
tot    0.000  0.616  0.075  0.691

band    13 # energy    4.98963806 # occ.  2.00000000

ion      s      p      d    tot
    1  0.000  0.308  0.037  0.345
    2  0.000  0.308  0.037  0.345
tot    0.000  0.616  0.075  0.691

band    14 # energy    4.98963808 # occ.  2.00000000

ion      s      p      d    tot
    1  0.000  0.308  0.037  0.345
    2  0.000  0.308  0.037  0.345
tot    0.000  0.616  0.075  0.691

band    15 # energy    5.02757970 # occ.  0.00000017

ion      s      p      d    tot
    1  0.428  0.000  0.000  0.428
    2  0.428  0.000  0.000  0.428
tot    0.855  0.000  0.000  0.855

band    16 # energy    7.54841376 # occ.  0.00000000

ion      s      p      d    tot
    1  0.000  0.209  0.047  0.256
    2  0.000  0.209  0.047  0.256
tot    0.000  0.419  0.094  0.513

band    17 # energy    7.54842083 # occ.  0.00000000

ion      s      p      d    tot
    1  0.000  0.209  0.047  0.256
    2  0.000  0.209  0.047  0.256
tot    0.000  0.419  0.094  0.513

band    18 # energy    7.54842089 # occ.  0.00000000

ion      s      p      d    tot
    1  0.000  0.209  0.047  0.256
    2  0.000  0.209  0.047  0.256
tot    0.000  0.419  0.094  0.513


 k-point     2 :    0.09090909 0.00000000 0.00000000     weight = 0.00601052

band     1 # energy  -19.82752590 # occ.  2.00000000

ion      s      p      d    tot
    1  0.000  0.000  0.496  0.497
    2  0.000  0.000  0.496  0.497
tot    0.000  0.001  0.993  0.994

band     2 # energy  -19.82752505 # occ.  2.00000000

ion      s      p      d    tot
    1  0.000  0.000  0.496  0.497
    2  0.000  0.000  0.496  0.497
tot    0.000  0.001  0.993  0.994

band     3 # energy  -19.82123879 # occ.  2.00000000

ion      s      p      d    tot
    1  0.000  0.001  0.496  0.497
    2  0.000  0.001  0.496  0.497
tot    0.000  0.001  0.993  0.994

band     4 # energy  -19.77955796 # occ.  2.00000000

ion      s      p      d    tot
    1  0.000  0.000  0.496  0.496
    2  0.000  0.000  0.496  0.496
tot    0.000  0.000  0.992  0.993

band     5 # energy  -19.77955791 # occ.  2.00000000

ion      s      p      d    tot
    1  0.000  0.000  0.496  0.496
    2  0.000  0.000  0.496  0.496
tot    0.000  0.000  0.992  0.993

band     6 # energy  -19.58364257 # occ.  2.00000000

ion      s      p      d    tot
    1  0.000  0.000  0.498  0.498
    2  0.000  0.000  0.498  0.498
tot    0.000  0.001  0.996  0.996

band     7 # energy  -19.58364205 # occ.  2.00000000

ion      s      p      d    tot
    1  0.000  0.000  0.498  0.498
    2  0.000  0.000  0.498  0.498
tot    0.000  0.001  0.996  0.996

band     8 # energy  -19.57776670 # occ.  2.00000000

ion      s      p      d    tot
    1  0.000  0.000  0.498  0.498
    2  0.000  0.000  0.498  0.498
tot    0.000  0.001  0.995  0.996

band     9 # energy  -19.55564192 # occ.  2.00000000

ion      s      p      d    tot
    1  0.000  0.000  0.499  0.499
    2  0.000  0.000  0.499  0.499
tot    0.000  0.000  0.997  0.998

band    10 # energy  -19.55564145 # occ.  2.00000000

ion      s      p      d    tot
    1  0.000  0.000  0.499  0.499
    2  0.000  0.000  0.499  0.499
tot    0.000  0.000  0.997  0.998

band    11 # energy   -7.68006265 # occ.  2.00000000

ion      s      p      d    tot
    1  0.310  0.001  0.000  0.311
    2  0.310  0.001  0.000  0.311
tot    0.619  0.003  0.000  0.623

band    12 # energy    3.30846556 # occ.  2.00000000

ion      s      p      d    tot
    1  0.191  0.156  0.020  0.367
    2  0.191  0.156  0.020  0.367
tot    0.382  0.311  0.041  0.734

band    13 # energy    4.79495066 # occ.  2.00000000

ion      s      p      d    tot
    1  0.000  0.303  0.034  0.338
    2  0.000  0.303  0.034  0.338
tot    0.000  0.607  0.069  0.675

band    14 # energy    4.79496355 # occ.  2.00000000

ion      s      p      d    tot
    1  0.000  0.303  0.034  0.338
    2  0.000  0.303  0.034  0.338
tot    0.000  0.607  0.069  0.675

band    15 # energy    5.99309810 # occ. -0.00000000

ion      s      p      d    tot
    1  0.217  0.130  0.013  0.359
    2  0.217  0.130  0.013  0.359
tot    0.433  0.259  0.026  0.719

band    16 # energy    7.80886640 # occ.  0.00000000

ion      s      p      d    tot
    1  0.000  0.215  0.049  0.264
    2  0.000  0.215  0.049  0.264
tot    0.000  0.430  0.098  0.528

band    17 # energy    7.80887345 # occ.  0.00000000

ion      s      p      d    tot
    1  0.000  0.215  0.049  0.264
    2  0.000  0.215  0.049  0.264
tot    0.000  0.430  0.098  0.528

band    18 # energy    8.02546334 # occ.  0.00000000

ion      s      p      d    tot
    1  0.033  0.205  0.047  0.285
    2  0.033  0.205  0.047  0.285
tot    0.066  0.410  0.093  0.570


 k-point     3 :    0.18181818 0.00000000 0.00000000     weight = 0.00601052

band     1 # energy  -19.83580173 # occ.  2.00000000

ion      s      p      d    tot
    1  0.000  0.000  0.496  0.497
    2  0.000  0.000  0.496  0.497
tot    0.000  0.001  0.993  0.993

band     2 # energy  -19.83580077 # occ.  2.00000000

ion      s      p      d    tot
    1  0.000  0.000  0.496  0.497
    2  0.000  0.000  0.496  0.497
tot    0.000  0.001  0.993  0.993

band     3 # energy  -19.81773809 # occ.  2.00000000

ion      s      p      d    tot
    1  0.000  0.000  0.496  0.497
    2  0.000  0.000  0.496  0.497
tot    0.000  0.001  0.993  0.994

band     4 # energy  -19.76674031 # occ.  2.00000000

ion      s      p      d    tot
    1  0.000  0.000  0.496  0.496
    2  0.000  0.000  0.496  0.496
tot    0.000  0.000  0.993  0.993

band     5 # energy  -19.76674011 # occ.  2.00000000

ion      s      p      d    tot
    1  0.000  0.000  0.496  0.496
    2  0.000  0.000  0.496  0.496
tot    0.000  0.000  0.993  0.993

band     6 # energy  -19.59455607 # occ.  2.00000000

ion      s      p      d    tot
    1  0.000  0.000  0.498  0.498
    2  0.000  0.000  0.498  0.498
tot    0.000  0.000  0.996  0.996

band     7 # energy  -19.59455590 # occ.  2.00000000

ion      s      p      d    tot
    1  0.000  0.000  0.498  0.498
    2  0.000  0.000  0.498  0.498
tot    0.000  0.000  0.996  0.996

band     8 # energy  -19.58212339 # occ.  2.00000000

ion      s      p      d    tot
    1  0.000  0.000  0.498  0.498
    2  0.000  0.000  0.498  0.498
tot    0.000  0.001  0.995  0.996

band     9 # energy  -19.54718523 # occ.  2.00000000

ion      s      p      d    tot
    1  0.000  0.000  0.499  0.499
    2  0.000  0.000  0.499  0.499
tot    0.000  0.000  0.997  0.998

band    10 # energy  -19.54718436 # occ.  2.00000000

ion      s      p      d    tot
    1  0.000  0.000  0.499  0.499
    2  0.000  0.000  0.499  0.499
tot    0.000  0.000  0.997  0.998

band    11 # energy   -7.38176815 # occ.  2.00000000

ion      s      p      d    tot
    1  0.308  0.006  0.001  0.314
    2  0.308  0.006  0.001  0.314
tot    0.615  0.011  0.001  0.628

band    12 # energy    1.53338956 # occ.  2.00000000

ion      s      p      d    tot
    1  0.186  0.144  0.016  0.347
    2  0.186  0.144  0.016  0.347
tot    0.373  0.288  0.033  0.693

band    13 # energy    4.39966269 # occ.  2.00000000

ion      s      p      d    tot
    1  0.000  0.299  0.028  0.327
    2  0.000  0.299  0.028  0.327
tot    0.000  0.597  0.057  0.654

band    14 # energy    4.39967474 # occ.  2.00000000

ion      s      p      d    tot
    1  0.000  0.299  0.028  0.327
    2  0.000  0.299  0.028  0.327
tot    0.000  0.597  0.057  0.654

band    15 # energy    5.90776993 # occ.  0.00000000

ion      s      p      d    tot
    1  0.193  0.103  0.018  0.314
    2  0.193  0.103  0.018  0.314
tot    0.387  0.205  0.036  0.629

band    16 # energy    8.32491496 # occ.  0.00000000

ion      s      p      d    tot
    1  0.000  0.216  0.054  0.270
    2  0.000  0.216  0.054  0.270
tot    0.000  0.432  0.109  0.541

band    17 # energy    8.32492298 # occ.  0.00000000

ion      s      p      d    tot
    1  0.000  0.216  0.054  0.270
    2  0.000  0.216  0.054  0.270
tot    0.000  0.432  0.109  0.541

band    18 # energy    9.41463083 # occ.  0.00000000

ion      s      p      d    tot
    1  0.079  0.199  0.037  0.315
    2  0.079  0.199  0.037  0.315
tot    0.158  0.398  0.073  0.629


 k-point     4 :    0.27272727 0.00000000 0.00000000     weight = 0.00601052

band     1 # energy  -19.84220622 # occ.  2.00000000

ion      s      p      d    tot
    1  0.000  0.000  0.496  0.497
    2  0.000  0.000  0.496  0.497
tot    0.000  0.001  0.993  0.993

band     2 # energy  -19.84220513 # occ.  2.00000000

ion      s      p      d    tot
    1  0.000  0.000  0.496  0.497
    2  0.000  0.000  0.496  0.497
tot    0.000  0.001  0.993  0.993

band     3 # energy  -19.81290604 # occ.  2.00000000

ion      s      p      d    tot
    1  0.000  0.000  0.496  0.497
    2  0.000  0.000  0.496  0.497
tot    0.001  0.001  0.993  0.994

band     4 # energy  -19.75525978 # occ.  2.00000000

ion      s      p      d    tot
    1  0.000  0.000  0.496  0.497
    2  0.000  0.000  0.496  0.497
tot    0.000  0.000  0.993  0.993

band     5 # energy  -19.75525941 # occ.  2.00000000

ion      s      p      d    tot
    1  0.000  0.000  0.496  0.497
    2  0.000  0.000  0.496  0.497
tot    0.000  0.000  0.993  0.993

band     6 # energy  -19.60319849 # occ.  2.00000000

ion      s      p      d    tot
    1  0.000  0.000  0.498  0.498
    2  0.000  0.000  0.498  0.498
tot    0.000  0.000  0.996  0.996

band     7 # energy  -19.60319837 # occ.  2.00000000

ion      s      p      d    tot
    1  0.000  0.000  0.498  0.498
    2  0.000  0.000  0.498  0.498
tot    0.000  0.000  0.996  0.996

band     8 # energy  -19.58778862 # occ.  2.00000000

ion      s      p      d    tot
    1  0.000  0.000  0.498  0.498
    2  0.000  0.000  0.498  0.498
tot    0.001  0.000  0.995  0.996

band     9 # energy  -19.54100278 # occ.  2.00000000

ion      s      p      d    tot
    1  0.000  0.000  0.499  0.499
    2  0.000  0.000  0.499  0.499
tot    0.000  0.000  0.997  0.998

band    10 # energy  -19.54100156 # occ.  2.00000000

ion      s      p      d    tot
    1  0.000  0.000  0.499  0.499
    2  0.000  0.000  0.499  0.499
tot    0.000  0.000  0.997  0.998

band    11 # energy   -6.90472730 # occ.  2.00000000

ion      s      p      d    tot
    1  0.306  0.012  0.002  0.319
    2  0.306  0.012  0.002  0.319
tot    0.611  0.023  0.003  0.637

band    12 # energy   -0.12038949 # occ.  2.00000000

ion      s      p      d    tot
    1  0.187  0.130  0.012  0.329
    2  0.187  0.130  0.012  0.329
tot    0.374  0.261  0.023  0.658

band    13 # energy    4.02094023 # occ.  2.00000000

ion      s      p      d    tot
    1  0.000  0.298  0.023  0.321
    2  0.000  0.298  0.023  0.321
tot    0.000  0.596  0.046  0.642

band    14 # energy    4.02095178 # occ.  2.00000000

ion      s      p      d    tot
    1  0.000  0.298  0.023  0.321
    2  0.000  0.298  0.023  0.321
tot    0.000  0.596  0.046  0.642

band    15 # energy    5.58884167 # occ.  0.00000000

ion      s      p      d    tot
    1  0.197  0.080  0.023  0.301
    2  0.197  0.080  0.023  0.301
tot    0.395  0.161  0.045  0.601

band    16 # energy    8.69260763 # occ.  0.00000000

ion      s      p      d    tot
    1  0.000  0.198  0.062  0.260
    2  0.000  0.198  0.062  0.260
tot    0.000  0.396  0.125  0.520

band    17 # energy    8.69261567 # occ.  0.00000000

ion      s      p      d    tot
    1  0.000  0.198  0.062  0.260
    2  0.000  0.198  0.062  0.260
tot    0.000  0.396  0.125  0.520

band    18 # energy   11.04100285 # occ.  0.00000000

ion      s      p      d    tot
    1  0.074  0.208  0.029  0.311
    2  0.074  0.208  0.029  0.311
tot    0.147  0.416  0.058  0.622


 k-point     5 :    0.36363636 0.00000000 0.00000000     weight = 0.00601052

band     1 # energy  -19.84579588 # occ.  2.00000000

ion      s      p      d    tot
    1  0.000  0.000  0.496  0.497
    2  0.000  0.000  0.496  0.497
tot    0.000  0.001  0.993  0.993

band     2 # energy  -19.84579466 # occ.  2.00000000

ion      s      p      d    tot
    1  0.000  0.000  0.496  0.497
    2  0.000  0.000  0.496  0.497
tot    0.000  0.001  0.993  0.993

band     3 # energy  -19.80847558 # occ.  2.00000000

ion      s      p      d    tot
    1  0.000  0.000  0.496  0.497
    2  0.000  0.000  0.496  0.497
tot    0.001  0.000  0.993  0.994

band     4 # energy  -19.74786149 # occ.  2.00000000

ion      s      p      d    tot
    1  0.000  0.000  0.496  0.497
    2  0.000  0.000  0.496  0.497
tot    0.000  0.000  0.993  0.993

band     5 # energy  -19.74786095 # occ.  2.00000000

ion      s      p      d    tot
    1  0.000  0.000  0.496  0.497
    2  0.000  0.000  0.496  0.497
tot    0.000  0.000  0.993  0.993

band     6 # energy  -19.60811684 # occ.  2.00000000

ion      s      p      d    tot
    1  0.000  0.000  0.498  0.498
    2  0.000  0.000  0.498  0.498
tot    0.000  0.000  0.996  0.997

band     7 # energy  -19.60811648 # occ.  2.00000000

ion      s      p      d    tot
    1  0.000  0.000  0.498  0.498
    2  0.000  0.000  0.498  0.498
tot    0.000  0.000  0.996  0.997

band     8 # energy  -19.59313073 # occ.  2.00000000

ion      s      p      d    tot
    1  0.001  0.000  0.497  0.498
    2  0.001  0.000  0.497  0.498
tot    0.001  0.000  0.995  0.996

band     9 # energy  -19.53739198 # occ.  2.00000000

ion      s      p      d    tot
    1  0.000  0.000  0.499  0.499
    2  0.000  0.000  0.499  0.499
tot    0.000  0.000  0.997  0.997

band    10 # energy  -19.53739048 # occ.  2.00000000

ion      s      p      d    tot
    1  0.000  0.000  0.499  0.499
    2  0.000  0.000  0.499  0.499
tot    0.000  0.000  0.997  0.997

band    11 # energy   -6.30652869 # occ.  2.00000000

ion      s      p      d    tot
    1  0.307  0.017  0.003  0.327
    2  0.307  0.017  0.003  0.327
tot    0.614  0.034  0.006  0.654

band    12 # energy   -1.52791304 # occ.  2.00000000

ion      s      p      d    tot
    1  0.186  0.120  0.007  0.312
    2  0.186  0.120  0.007  0.312
tot    0.372  0.239  0.014  0.625

band    13 # energy    3.74561670 # occ.  2.00000000

ion      s      p      d    tot
    1  0.000  0.299  0.019  0.318
    2  0.000  0.299  0.019  0.318
tot    0.000  0.599  0.037  0.636

band    14 # energy    3.74562801 # occ.  2.00000000

ion      s      p      d    tot
    1  0.000  0.299  0.019  0.318
    2  0.000  0.299  0.019  0.318
tot    0.000  0.599  0.037  0.636

band    15 # energy    5.33105837 # occ.  0.00000000

ion      s      p      d    tot
    1  0.206  0.066  0.026  0.297
    2  0.206  0.066  0.026  0.297
tot    0.411  0.132  0.051  0.594

band    16 # energy    8.77905448 # occ.  0.00000000

ion      s      p      d    tot
    1  0.000  0.170  0.071  0.241
    2  0.000  0.170  0.071  0.241
tot    0.000  0.339  0.142  0.482

band    17 # energy    8.77906177 # occ.  0.00000000

ion      s      p      d    tot
    1  0.000  0.170  0.071  0.241
    2  0.000  0.170  0.071  0.241
tot    0.000  0.339  0.142  0.482

band    18 # energy   12.23816259 # occ.  0.00000000

ion      s      p      d    tot
    1  0.004  0.136  0.020  0.160
    2  0.004  0.136  0.020  0.160
tot    0.008  0.272  0.040  0.320


 k-point     6 :    0.45454545 0.00000000 0.00000000     weight = 0.00601052

band     1 # energy  -19.84714569 # occ.  2.00000000

ion      s      p      d    tot
    1  0.000  0.000  0.496  0.497
    2  0.000  0.000  0.496  0.497
tot    0.000  0.001  0.993  0.994

band     2 # energy  -19.84714440 # occ.  2.00000000

ion      s      p      d    tot
    1  0.000  0.000  0.496  0.497
    2  0.000  0.000  0.496  0.497
tot    0.000  0.001  0.993  0.994

band     3 # energy  -19.80543146 # occ.  2.00000000

ion      s      p      d    tot
    1  0.000  0.000  0.496  0.497
    2  0.000  0.000  0.496  0.497
tot    0.001  0.000  0.992  0.994

band     4 # energy  -19.74466728 # occ.  2.00000000

ion      s      p      d    tot
    1  0.000  0.000  0.496  0.496
    2  0.000  0.000  0.496  0.496
tot    0.000  0.000  0.993  0.993

band     5 # energy  -19.74466665 # occ.  2.00000000

ion      s      p      d    tot
    1  0.000  0.000  0.496  0.496
    2  0.000  0.000  0.496  0.496
tot    0.000  0.000  0.993  0.993

band     6 # energy  -19.60980218 # occ.  2.00000000

ion      s      p      d    tot
    1  0.000  0.000  0.498  0.498
    2  0.000  0.000  0.498  0.498
tot    0.000  0.000  0.997  0.997

band     7 # energy  -19.60980167 # occ.  2.00000000

ion      s      p      d    tot
    1  0.000  0.000  0.498  0.498
    2  0.000  0.000  0.498  0.498
tot    0.000  0.000  0.997  0.997

band     8 # energy  -19.59635506 # occ.  2.00000000

ion      s      p      d    tot
    1  0.001  0.000  0.497  0.498
    2  0.001  0.000  0.497  0.498
tot    0.001  0.000  0.995  0.996

band     9 # energy  -19.53579080 # occ.  2.00000000

ion      s      p      d    tot
    1  0.000  0.000  0.499  0.499
    2  0.000  0.000  0.499  0.499
tot    0.000  0.000  0.997  0.997

band    10 # energy  -19.53578914 # occ.  2.00000000

ion      s      p      d    tot
    1  0.000  0.000  0.499  0.499
    2  0.000  0.000  0.499  0.499
tot    0.000  0.000  0.997  0.997

band    11 # energy   -5.78213855 # occ.  2.00000000

ion      s      p      d    tot
    1  0.315  0.018  0.005  0.338
    2  0.315  0.018  0.005  0.338
tot    0.629  0.036  0.011  0.676

band    12 # energy   -2.46330587 # occ.  2.00000000

ion      s      p      d    tot
    1  0.179  0.116  0.003  0.297
    2  0.179  0.116  0.003  0.297
tot    0.357  0.231  0.006  0.595

band    13 # energy    3.60331313 # occ.  2.00000000

ion      s      p      d    tot
    1  0.000  0.300  0.016  0.317
    2  0.000  0.300  0.016  0.317
tot    0.000  0.601  0.033  0.633

band    14 # energy    3.60332435 # occ.  2.00000000

ion      s      p      d    tot
    1  0.000  0.300  0.016  0.317
    2  0.000  0.300  0.016  0.317
tot    0.000  0.601  0.033  0.633

band    15 # energy    5.19518160 # occ.  0.00000000

ion      s      p      d    tot
    1  0.210  0.059  0.027  0.297
    2  0.210  0.059  0.027  0.297
tot    0.421  0.118  0.055  0.593

band    16 # energy    8.74997653 # occ.  0.00000000

ion      s      p      d    tot
    1  0.000  0.153  0.076  0.229
    2  0.000  0.153  0.076  0.229
tot    0.000  0.306  0.152  0.458

band    17 # energy    8.74998328 # occ.  0.00000000

ion      s      p      d    tot
    1  0.000  0.153  0.076  0.229
    2  0.000  0.153  0.076  0.229
tot    0.000  0.306  0.152  0.458

band    18 # energy   12.15163012 # occ.  0.00000000

ion      s      p      d    tot
    1  0.006  0.061  0.019  0.085
    2  0.006  0.061  0.019  0.085
tot    0.011  0.122  0.038  0.170


 k-point     7 :    0.09090909 0.09090909 0.00000000     weight = 0.00450789

band     1 # energy  -19.82785360 # occ.  2.00000000

ion      s      p      d    tot
    1  0.000  0.000  0.496  0.497
    2  0.000  0.000  0.496  0.497
tot    0.000  0.001  0.992  0.993

band     2 # energy  -19.82574546 # occ.  2.00000000

ion      s      p      d    tot
    1  0.000  0.001  0.496  0.497
    2  0.000  0.001  0.496  0.497
tot    0.000  0.001  0.993  0.994

band     3 # energy  -19.82574484 # occ.  2.00000000

ion      s      p      d    tot
    1  0.000  0.001  0.496  0.497
    2  0.000  0.001  0.496  0.497
tot    0.000  0.001  0.993  0.994

band     4 # energy  -19.78154337 # occ.  2.00000000

ion      s      p      d    tot
    1  0.000  0.000  0.496  0.496
    2  0.000  0.000  0.496  0.496
tot    0.000  0.000  0.992  0.992

band     5 # energy  -19.77251164 # occ.  2.00000000

ion      s      p      d    tot
    1  0.000  0.000  0.496  0.497
    2  0.000  0.000  0.496  0.497
tot    0.000  0.000  0.993  0.993

band     6 # energy  -19.59794369 # occ.  2.00000000

ion      s      p      d    tot
    1  0.000  0.000  0.498  0.498
    2  0.000  0.000  0.498  0.498
tot    0.000  0.000  0.995  0.996

band     7 # energy  -19.57144418 # occ.  2.00000000

ion      s      p      d    tot
    1  0.000  0.000  0.498  0.498
    2  0.000  0.000  0.498  0.498
tot    0.000  0.001  0.995  0.996

band     8 # energy  -19.57144344 # occ.  2.00000000

ion      s      p      d    tot
    1  0.000  0.000  0.498  0.498
    2  0.000  0.000  0.498  0.498
tot    0.000  0.001  0.995  0.996

band     9 # energy  -19.56643903 # occ.  2.00000000

ion      s      p      d    tot
    1  0.000  0.000  0.499  0.499
    2  0.000  0.000  0.499  0.499
tot    0.000  0.000  0.998  0.998

band    10 # energy  -19.55072798 # occ.  2.00000000

ion      s      p      d    tot
    1  0.000  0.000  0.499  0.499
    2  0.000  0.000  0.499  0.499
tot    0.000  0.000  0.998  0.998

band    11 # energy   -7.64615315 # occ.  2.00000000

ion      s      p      d    tot
    1  0.309  0.002  0.000  0.312
    2  0.309  0.002  0.000  0.312
tot    0.619  0.004  0.000  0.623

band    12 # energy    3.25610357 # occ.  2.00000000

ion      s      p      d    tot
    1  0.229  0.134  0.020  0.383
    2  0.229  0.134  0.020  0.383
tot    0.459  0.268  0.040  0.767

band    13 # energy    4.45099454 # occ.  2.00000000

ion      s      p      d    tot
    1  0.000  0.292  0.031  0.323
    2  0.000  0.292  0.031  0.323
tot    0.000  0.584  0.061  0.646

band    14 # energy    4.45100353 # occ.  2.00000000

ion      s      p      d    tot
    1  0.000  0.292  0.031  0.323
    2  0.000  0.292  0.031  0.323
tot    0.000  0.584  0.061  0.646

band    15 # energy    6.69538632 # occ. -0.00000002

ion      s      p      d    tot
    1  0.196  0.177  0.014  0.387
    2  0.196  0.177  0.014  0.387
tot    0.391  0.355  0.028  0.774

band    16 # energy    7.15947853 # occ.  0.00000000

ion      s      p      d    tot
    1  0.017  0.176  0.044  0.237
    2  0.017  0.176  0.044  0.237
tot    0.033  0.352  0.089  0.475

band    17 # energy    8.25786999 # occ.  0.00000000

ion      s      p      d    tot
    1  0.000  0.226  0.053  0.280
    2  0.000  0.226  0.053  0.280
tot    0.000  0.452  0.107  0.559

band    18 # energy    8.25787609 # occ.  0.00000000

ion      s      p      d    tot
    1  0.000  0.226  0.053  0.280
    2  0.000  0.226  0.053  0.280
tot    0.000  0.452  0.107  0.559


 k-point     8 :    0.18181818 0.09090909 0.00000000     weight = 0.01803156

band     1 # energy  -19.83674520 # occ.  2.00000000

ion      s      p      d    tot
    1  0.000  0.000  0.496  0.497
    2  0.000  0.000  0.496  0.497
tot    0.000  0.001  0.992  0.993

band     2 # energy  -19.83157158 # occ.  2.00000000

ion      s      p      d    tot
    1  0.000  0.000  0.496  0.497
    2  0.000  0.000  0.496  0.497
tot    0.000  0.001  0.993  0.994

band     3 # energy  -19.82242144 # occ.  2.00000000

ion      s      p      d    tot
    1  0.000  0.000  0.496  0.497
    2  0.000  0.000  0.496  0.497
tot    0.000  0.001  0.993  0.994

band     4 # energy  -19.77264224 # occ.  2.00000000

ion      s      p      d    tot
    1  0.000  0.000  0.496  0.496
    2  0.000  0.000  0.496  0.496
tot    0.000  0.000  0.993  0.993

band     5 # energy  -19.75880714 # occ.  2.00000000

ion      s      p      d    tot
    1  0.000  0.000  0.497  0.497
    2  0.000  0.000  0.497  0.497
tot    0.000  0.000  0.993  0.993

band     6 # energy  -19.61265397 # occ.  2.00000000

ion      s      p      d    tot
    1  0.000  0.000  0.498  0.498
    2  0.000  0.000  0.498  0.498
tot    0.000  0.000  0.995  0.996

band     7 # energy  -19.58081805 # occ.  2.00000000

ion      s      p      d    tot
    1  0.000  0.000  0.498  0.498
    2  0.000  0.000  0.498  0.498
tot    0.000  0.000  0.997  0.997

band     8 # energy  -19.57137567 # occ.  2.00000000

ion      s      p      d    tot
    1  0.000  0.000  0.498  0.498
    2  0.000  0.000  0.498  0.498
tot    0.000  0.001  0.996  0.996

band     9 # energy  -19.55787156 # occ.  2.00000000

ion      s      p      d    tot
    1  0.000  0.000  0.498  0.499
    2  0.000  0.000  0.498  0.499
tot    0.000  0.000  0.997  0.997

band    10 # energy  -19.54408461 # occ.  2.00000000

ion      s      p      d    tot
    1  0.000  0.000  0.499  0.499
    2  0.000  0.000  0.499  0.499
tot    0.000  0.000  0.998  0.998

band    11 # energy   -7.41261644 # occ.  2.00000000

ion      s      p      d    tot
    1  0.308  0.005  0.001  0.314
    2  0.308  0.005  0.001  0.314
tot    0.615  0.011  0.001  0.627

band    12 # energy    1.91949038 # occ.  2.00000000

ion      s      p      d    tot
    1  0.211  0.135  0.018  0.364
    2  0.211  0.135  0.018  0.364
tot    0.423  0.270  0.036  0.728

band    13 # energy    4.01438322 # occ.  2.00000000

ion      s      p      d    tot
    1  0.000  0.287  0.025  0.312
    2  0.000  0.287  0.025  0.312
tot    0.000  0.574  0.051  0.625

band    14 # energy    4.07300108 # occ.  2.00000000

ion      s      p      d    tot
    1  0.023  0.267  0.026  0.316
    2  0.023  0.267  0.026  0.316
tot    0.045  0.534  0.052  0.631

band    15 # energy    6.88227384 # occ.  0.00000000

ion      s      p      d    tot
    1  0.130  0.169  0.025  0.324
    2  0.130  0.169  0.025  0.324
tot    0.260  0.338  0.050  0.648

band    16 # energy    7.33101060 # occ.  0.00000000

ion      s      p      d    tot
    1  0.052  0.177  0.038  0.268
    2  0.052  0.177  0.038  0.268
tot    0.104  0.354  0.077  0.535

band    17 # energy    8.88358605 # occ.  0.00000000

ion      s      p      d    tot
    1  0.000  0.230  0.058  0.289
    2  0.000  0.230  0.058  0.289
tot    0.000  0.461  0.117  0.578

band    18 # energy    9.23434998 # occ.  0.00000000

ion      s      p      d    tot
    1  0.033  0.219  0.050  0.302
    2  0.033  0.219  0.050  0.302
tot    0.067  0.438  0.099  0.604


 k-point     9 :    0.27272727 0.09090909 0.00000000     weight = 0.01803156

band     1 # energy  -19.84571254 # occ.  2.00000000

ion      s      p      d    tot
    1  0.000  0.000  0.496  0.497
    2  0.000  0.000  0.496  0.497
tot    0.000  0.001  0.992  0.993

band     2 # energy  -19.83838104 # occ.  2.00000000

ion      s      p      d    tot
    1  0.000  0.000  0.496  0.497
    2  0.000  0.000  0.496  0.497
tot    0.000  0.001  0.993  0.994

band     3 # energy  -19.81499836 # occ.  2.00000000

ion      s      p      d    tot
    1  0.000  0.000  0.496  0.497
    2  0.000  0.000  0.496  0.497
tot    0.000  0.001  0.993  0.994

band     4 # energy  -19.76082589 # occ.  2.00000000

ion      s      p      d    tot
    1  0.000  0.000  0.496  0.496
    2  0.000  0.000  0.496  0.496
tot    0.000  0.000  0.993  0.993

band     5 # energy  -19.74572002 # occ.  2.00000000

ion      s      p      d    tot
    1  0.000  0.000  0.497  0.497
    2  0.000  0.000  0.497  0.497
tot    0.000  0.000  0.993  0.994

band     6 # energy  -19.62362167 # occ.  2.00000000

ion      s      p      d    tot
    1  0.000  0.000  0.498  0.498
    2  0.000  0.000  0.498  0.498
tot    0.000  0.000  0.995  0.996

band     7 # energy  -19.59201903 # occ.  2.00000000

ion      s      p      d    tot
    1  0.000  0.000  0.498  0.498
    2  0.000  0.000  0.498  0.498
tot    0.000  0.000  0.997  0.997

band     8 # energy  -19.57813419 # occ.  2.00000000

ion      s      p      d    tot
    1  0.000  0.000  0.498  0.498
    2  0.000  0.000  0.498  0.498
tot    0.000  0.000  0.996  0.996

band     9 # energy  -19.54855269 # occ.  2.00000000

ion      s      p      d    tot
    1  0.000  0.000  0.498  0.499
    2  0.000  0.000  0.498  0.499
tot    0.000  0.000  0.997  0.997

band    10 # energy  -19.53645025 # occ.  2.00000000

ion      s      p      d    tot
    1  0.000  0.000  0.499  0.499
    2  0.000  0.000  0.499  0.499
tot    0.000  0.000  0.997  0.998

band    11 # energy   -6.99194460 # occ.  2.00000000

ion      s      p      d    tot