    2    2    1    1
  0.2263565E+02  0.4000485E-09  0.4000485E-09  0.4000485E-09  0.5000000E-15
   1.0000000000000000E-004
  CAR 
 unknown system                          
     28    118     18
 
  0.0000000E+00  0.0000000E+00  0.0000000E+00  0.1000000E-02
      1        -23.299250   1.000000
      2        -23.299249   1.000000
      3        -23.299247   1.000000
      4        -23.262512   1.000000
      5        -23.262512   1.000000
      6        -23.054088   1.000000
      7        -23.054087   1.000000
      8        -23.054084   1.000000
      9        -23.037483   1.000000
     10        -23.037483   1.000000
     11         -9.396902   1.000000
     12          4.673354   1.000000
     13          4.673403   1.000000
     14          4.673404   1.000000
     15          5.546596   0.000000
     16          7.901130   0.000000
     17          7.901146   0.000000
     18          7.901147   0.000000
 
  0.1000000E+00  0.0000000E+00  0.0000000E+00  0.8000000E-02
      1        -23.305182   1.000000
      2        -23.305180   1.000000
      3        -23.297886   1.000000
      4        -23.254574   1.000000
      5        -23.254574   1.000000
      6        -23.061810   1.000000
      7        -23.061809   1.000000
      8        -23.055894   1.000000
      9        -23.031030   1.000000
     10        -23.031029   1.000000
     11         -9.261455   1.000000
     12          2.869696   1.000000
     13          4.434985   1.000000
     14          4.435026   1.000000
     15          6.406635   0.000000
     16          8.225469   0.000000
     17          8.225480   0.000000
     18          8.513435   0.000000
 
  0.2000000E+00  0.0000000E+00  0.0000000E+00  0.8000000E-02
      1        -23.314293   1.000000
      2        -23.314289   1.000000
      3        -23.293769   1.000000
      4        -23.240388   1.000000
      5        -23.240387   1.000000
      6        -23.073111   1.000000
      7        -23.073110   1.000000
      8        -23.060648   1.000000
      9        -23.022689   1.000000
     10        -23.022687   1.000000
     11         -8.862297   1.000000
     12          0.663318   1.000000
     13          3.960743   1.000000
     14          3.960781   1.000000
     15          6.214042   0.000000
     16          8.830531   0.000000
     17          8.830552   0.000000
     18         10.281612   0.000000
 
  0.3000000E+00  0.0000000E+00  0.0000000E+00  0.8000000E-02
      1        -23.320729   1.000000
      2        -23.320725   1.000000
      3        -23.288518   1.000000
      4        -23.228708   1.000000
      5        -23.228707   1.000000
      6        -23.081154   1.000000
      7        -23.081154   1.000000
      8        -23.066528   1.000000
      9        -23.017065   1.000000
     10        -23.017061   1.000000
     11         -8.231557   1.000000
     12         -1.342888   1.000000
     13          3.527247   1.000000
     14          3.527283   1.000000
     15          5.835543   0.000000
     16          9.166927   0.000000
     17          9.166943   0.000000
     18         12.210840   0.000000
 
  0.4000000E+00  0.0000000E+00  0.0000000E+00  0.8000000E-02
      1        -23.323980   1.000000
      2        -23.323977   1.000000
      3        -23.284296   1.000000
      4        -23.222290   1.000000
      5        -23.222288   1.000000
      6        -23.084892   1.000000
      7        -23.084891   1.000000
      8        -23.071476   1.000000
      9        -23.014371   1.000000
     10        -23.014366   1.000000
     11         -7.486447   1.000000
     12         -2.937557   1.000000
     13          3.244000   1.000000
     14          3.244035   1.000000
     15          5.576041   0.000000
     16          9.177750   0.000000
     17          9.177769   0.000000
     18         12.733896   0.000000
 
  0.5000000E+00  0.0000000E+00  0.0000000E+00  0.4000000E-02
      1        -23.324756   1.000000
      2        -23.324752   1.000000
      3        -23.282313   1.000000
      4        -23.220510   1.000000
      5        -23.220508   1.000000
      6        -23.085566   1.000000
      7        -23.085565   1.000000
      8        -23.073293   1.000000
      9        -23.013677   1.000000
     10        -23.013672   1.000000
     11         -7.063231   1.000000
     12         -3.647343   1.000000
     13          3.146800   1.000000
     14          3.146835   1.000000
     15          5.486787   0.000000
     16          9.141729   0.000000
     17          9.141747   0.000000
     18         12.601909   0.000000
 
  0.1000000E+00  0.1000000E+00  0.0000000E+00  0.6000000E-02
      1        -23.305262   1.000000
      2        -23.303292   1.000000
      3        -23.303290   1.000000
      4        -23.256767   1.000000
      5        -23.246262   1.000000
      6        -23.078195   1.000000
      7        -23.048392   1.000000
      8        -23.048389   1.000000
      9        -23.042852   1.000000
     10        -23.025921   1.000000
     11         -9.215867   1.000000
     12          2.863139   1.000000
     13          4.018828   1.000000
     14          4.018857   1.000000
     15          7.249545   0.000000
     16          7.400743   0.000000
     17          8.776291   0.000000
     18          8.776306   0.000000
 
  0.2000000E+00  0.1000000E+00  0.0000000E+00  0.2400000E-01
      1        -23.315536   1.000000
      2        -23.310002   1.000000
      3        -23.298858   1.000000
      4        -23.246525   1.000000
      5        -23.230674   1.000000
      6        -23.094364   1.000000
      7        -23.058389   1.000000
      8        -23.048355   1.000000
      9        -23.033922   1.000000
     10        -23.019108   1.000000
     11         -8.902853   1.000000
     12          1.173406   1.000000
     13          3.497974   1.000000
     14          3.577905   1.000000
     15          7.246016   0.000000
     16          7.780113   0.000000
     17          9.525057   0.000000
     18          9.950808   0.000000
 
  0.3000000E+00  0.1000000E+00  0.0000000E+00  0.2400000E-01
      1        -23.325339   1.000000
      2        -23.317300   1.000000
      3        -23.289732   1.000000
      4        -23.233663   1.000000
      5        -23.217151   1.000000
      6        -23.105142   1.000000
      7        -23.070380   1.000000
      8        -23.056594   1.000000
      9        -23.024313   1.000000
     10        -23.011212   1.000000
     11         -8.343085   1.000000
     12         -0.770672   1.000000
     13          3.023319   1.000000
     14          3.091651   1.000000
     15          6.923478   0.000000
     16          8.452257   0.000000
     17          9.947137   0.000000
     18         10.859910   0.000000
 
  0.4000000E+00  0.1000000E+00  0.0000000E+00  0.2400000E-01
      1        -23.331545   1.000000
      2        -23.322781   1.000000
      3        -23.279868   1.000000
      4        -23.223111   1.000000
      5        -23.211118   1.000000
      6        -23.107024   1.000000
      7        -23.080655   1.000000
      8        -23.067914   1.000000
      9        -23.017111   1.000000
     10        -23.005703   1.000000
     11         -7.610517   1.000000
     12         -2.472995   1.000000
     13          2.526364   1.000000
     14          2.881777   1.000000
     15          6.612344   0.000000
     16          8.799671   0.000000
     17          9.887973   0.000000
     18         11.948061   0.000000
 
  0.5000000E+00  0.1000000E+00  0.0000000E+00  0.2400000E-01
      1        -23.333587   1.000000
      2        -23.326259   1.000000
      3        -23.272590   1.000000
      4        -23.215345   1.000000
      5        -23.213246   1.000000
      6        -23.099561   1.000000
      7        -23.089744   1.000000
      8        -23.077809   1.000000
      9        -23.011833   1.000000
     10        -23.004174   1.000000
     11         -6.995414   1.000000
     12         -3.541401   1.000000
     13          2.196117   1.000000
     14          2.890489   1.000000
     15          6.446996   0.000000
     16          8.912784   0.000000
     17          9.657057   0.000000
     18         13.012099   0.000000
 
 -0.4000000E+00  0.1000000E+00  0.0000000E+00  0.2400000E-01
      1        -23.331866   1.000000
      2        -23.328020   1.000000
      3        -23.271915   1.000000
      4        -23.219971   1.000000
      5        -23.211301   1.000000
      6        -23.096471   1.000000
      7        -23.086011   1.000000
      8        -23.083243   1.000000
      9        -23.008683   1.000000
     10        -23.007301   1.000000
     11         -7.151211   1.000000
     12         -3.292081   1.000000
     13          2.077382   1.000000
     14          3.109958   1.000000
     15          6.455913   0.000000
     16          9.092729   0.000000
     17          9.460782   0.000000
     18         13.116016   0.000000
 
 -0.3000000E+00  0.1000000E+00  0.0000000E+00  0.2400000E-01
      1        -23.327064   1.000000
      2        -23.326273   1.000000
      3        -23.278400   1.000000
      4        -23.227983   1.000000
      5        -23.213694   1.000000
      6        -23.097614   1.000000
      7        -23.084136   1.000000
      8        -23.069038   1.000000
      9        -23.014847   1.000000
     10        -23.008490   1.000000
     11         -7.867084   1.000000
     12         -1.944377   1.000000
     13          2.197942   1.000000
     14          3.506634   1.000000
     15          6.632651   0.000000
     16          9.257249   0.000000
     17          9.312373   0.000000
     18         12.068688   0.000000
 
 -0.2000000E+00  0.1000000E+00  0.0000000E+00  0.2400000E-01
      1        -23.322581   1.000000
      2        -23.317495   1.000000
      3        -23.288385   1.000000
      4        -23.237882   1.000000
      5        -23.224632   1.000000
      6        -23.090569   1.000000
      7        -23.079376   1.000000
      8        -23.052890   1.000000
      9        -23.026633   1.000000
     10        -23.012207   1.000000
     11         -8.556610   1.000000
     12         -0.148482   1.000000
     13          2.591096   1.000000
     14          4.003261   1.000000
     15          6.921049   0.000000
     16          8.836135   0.000000
     17          9.102695   0.000000
     18         10.819108   0.000000
 
 -0.1000000E+00  0.1000000E+00  0.0000000E+00  0.1200000E-01
      1        -23.314266   1.000000
      2        -23.307626   1.000000
      3        -23.296804   1.000000
      4        -23.248870   1.000000
      5        -23.240527   1.000000
      6        -23.077336   1.000000
      7        -23.069969   1.000000
      8        -23.042505   1.000000
      9        -23.039013   1.000000
     10        -23.019898   1.000000
     11         -9.037381   1.000000
     12          1.672663   1.000000
     13          3.363171   1.000000
     14          4.417404   1.000000
     15          6.981161   0.000000
     16          8.302589   0.000000
     17          8.362957   0.000000
     18          9.786422   0.000000
 
  0.2000000E+00  0.2000000E+00  0.0000000E+00  0.6000000E-02
      1        -23.312971   1.000000
      2        -23.312969   1.000000
      3        -23.308221   1.000000
      4        -23.240305   1.000000
      5        -23.212743   1.000000
      6        -23.117700   1.000000
      7        -23.058292   1.000000
      8        -23.034269   1.000000
      9        -23.034266   1.000000
     10        -23.022237   1.000000
     11         -8.675789   1.000000
     12          0.722413   1.000000
     13          2.946972   1.000000
     14          2.946997   1.000000
     15          6.572447   0.000000
     16          8.388535   0.000000
     17         10.491783   0.000000
     18         10.492057   0.000000
 
  0.3000000E+00  0.2000000E+00  0.0000000E+00  0.2400000E-01
      1        -23.325165   1.000000
      2        -23.319131   1.000000
      3        -23.296820   1.000000
      4        -23.227597   1.000000
      5        -23.195373   1.000000
      6        -23.135888   1.000000
      7        -23.071289   1.000000
      8        -23.041344   1.000000
      9        -23.024251   1.000000
     10        -23.013149   1.000000
     11         -8.193292   1.000000
     12         -0.634143   1.000000
     13          2.315519   1.000000
     14          2.522450   1.000000
     15          6.684175   0.000000
     16          8.330699   0.000000
     17         10.682180   0.000000
     18         11.196933   0.000000
 
  0.4000000E+00  0.2000000E+00  0.0000000E+00  0.2400000E-01
      1        -23.336692   1.000000
      2        -23.324900   1.000000
      3        -23.279617   1.000000
      4        -23.214154   1.000000
      5        -23.185975   1.000000
      6        -23.143438   1.000000
      7        -23.085839   1.000000
      8        -23.059620   1.000000
      9        -23.015008   1.000000
     10        -23.000680   1.000000
     11         -7.501230   1.000000
     12         -2.149222   1.000000
     13          1.572373   1.000000
     14          2.310948   1.000000
     15          6.885017   0.000000
     16          9.044303   0.000000
     17         10.411339   0.000000
     18         11.272300   0.000000
 
  0.5000000E+00  0.2000000E+00  0.0000000E+00  0.2400000E-01
      1        -23.343763   1.000000
      2        -23.329436   1.000000
      3        -23.263546   1.000000
      4        -23.202078   1.000000
      5        -23.189171   1.000000
      6        -23.136995   1.000000
      7        -23.100159   1.000000
      8        -23.076869   1.000000
      9        -23.007783   1.000000
     10        -22.993025   1.000000
     11         -6.779193   1.000000
     12         -3.360729   1.000000
     13          0.990558   1.000000
     14          2.339079   1.000000
     15          6.888736   0.000000
     16          9.689901   0.000000
     17         10.973704   0.000000
     18         11.213894   0.000000
 
 -0.4000000E+00  0.2000000E+00  0.0000000E+00  0.2400000E-01
      1        -23.344953   1.000000
      2        -23.332280   1.000000
      3        -23.255020   1.000000
      4        -23.202205   1.000000
      5        -23.193545   1.000000
      6        -23.119954   1.000000
      7        -23.112217   1.000000
      8        -23.086698   1.000000
      9        -23.003329   1.000000
     10        -22.992326   1.000000
     11         -6.640009   1.000000
     12         -3.559099   1.000000
     13          0.681036   1.000000
     14          2.599927   1.000000
     15          7.010794   0.000000
     16          9.729608   0.000000
     17         10.608307   0.000000
     18         13.042773   0.000000
 
 -0.3000000E+00  0.2000000E+00  0.0000000E+00  0.2400000E-01
      1        -23.339837   1.000000
      2        -23.332565   1.000000
      3        -23.258206   1.000000
      4        -23.218520   1.000000
      5        -23.194049   1.000000
      6        -23.115496   1.000000
      7        -23.098693   1.000000
      8        -23.085734   1.000000
      9        -23.002307   1.000000
     10        -22.999381   1.000000
     11         -7.276386   1.000000
     12         -2.565210   1.000000
     13          0.725372   1.000000
     14          3.052749   1.000000
     15          7.267644   0.000000
     16          9.873437   0.000000
     17         10.169793   0.000000
     18         11.732748   0.000000
 
 -0.2000000E+00  0.2000000E+00  0.0000000E+00  0.1200000E-01
      1        -23.329320   1.000000
      2        -23.329285   1.000000
      3        -23.272688   1.000000
      4        -23.230089   1.000000
      5        -23.206563   1.000000
      6        -23.106526   1.000000
      7        -23.088514   1.000000
      8        -23.067011   1.000000
      9        -23.013182   1.000000
     10        -23.005246   1.000000
     11         -8.005482   1.000000
     12         -1.236461   1.000000
     13          1.294967   1.000000
     14          3.596136   1.000000
     15          7.455362   0.000000
     16          9.482465   0.000000
     17          9.659308   0.000000
     18         10.667140   0.000000
 
  0.3000000E+00  0.3000000E+00  0.0000000E+00  0.6000000E-02
      1        -23.323741   1.000000
      2        -23.323739   1.000000
      3        -23.299895   1.000000
      4        -23.214671   1.000000
      5        -23.172423   1.000000
      6        -23.162505   1.000000
      7        -23.082453   1.000000
      8        -23.032886   1.000000
      9        -23.017584   1.000000
     10        -23.017582   1.000000
     11         -7.786849   1.000000
     12         -1.348283   1.000000
     13          2.059510   1.000000
     14          2.059533   1.000000
     15          5.967224   0.000000
     16          7.637677   0.000000
     17         12.407031   0.000000
     18         12.771925   0.000000
 
  0.4000000E+00  0.3000000E+00  0.0000000E+00  0.2400000E-01
      1        -23.334054   1.000000
      2        -23.328395   1.000000
      3        -23.283460   1.000000
      4        -23.199496   1.000000
      5        -23.180031   1.000000
      6        -23.155276   1.000000
      7        -23.097807   1.000000
      8        -23.052107   1.000000
      9        -23.009950   1.000000
     10        -23.003653   1.000000
     11         -7.150629   1.000000
     12         -2.456024   1.000000
     13          1.397853   1.000000
     14          1.806761   1.000000
     15          6.201273   0.000000
     16          7.504675   0.000000
     17         12.350996   0.000000
     18         12.939412   0.000000
 
  0.5000000E+00  0.3000000E+00  0.0000000E+00  0.2400000E-01
      1        -23.345354   1.000000
      2        -23.332361   1.000000
      3        -23.261211   1.000000
      4        -23.184566   1.000000
      5        -23.183252   1.000000
      6        -23.150247   1.000000
      7        -23.114485   1.000000
      8        -23.075669   1.000000
      9        -23.003753   1.000000
     10        -22.990826   1.000000
     11         -6.389096   1.000000
     12         -3.523872   1.000000
     13          0.538762   1.000000
     14          1.800522   1.000000
     15          6.419831   0.000000
     16          8.700874   0.000000
     17         11.958452   0.000000
     18         12.730444   0.000000
 
 -0.4000000E+00  0.3000000E+00  0.0000000E+00  0.2400000E-01
      1        -23.351198   1.000000
      2        -23.334777   1.000000
      3        -23.247858   1.000000
      4        -23.172965   1.000000
      5        -23.170957   1.000000
      6        -23.159927   1.000000
      7        -23.129170   1.000000
      8        -23.088905   1.000000
      9        -22.999984   1.000000
     10        -22.984619   1.000000
     11         -5.998813   1.000000
     12         -3.985409   1.000000
     13         -0.032965   1.000000
     14          2.040216   1.000000
     15          6.620837   0.000000
     16         10.678695   0.000000
     17         11.711744   0.000000
     18         12.220377   0.000000
 
 -0.3000000E+00  0.3000000E+00  0.0000000E+00  0.1200000E-01
      1        -23.349467   1.000000
      2        -23.335094   1.000000
      3        -23.247002   1.000000
      4        -23.195301   1.000000
      5        -23.176276   1.000000
      6        -23.131718   1.000000
      7        -23.129857   1.000000
      8        -23.090568   1.000000
      9        -22.999440   1.000000
     10        -22.987543   1.000000
     11         -6.538763   1.000000
     12         -3.355298   1.000000
     13         -0.050388   1.000000
     14          2.489987   1.000000
     15          6.982721   0.000000
     16         11.366921   0.000000
     17         11.506607   0.000000
     18         11.690309   0.000000
 
  0.4000000E+00  0.4000000E+00  0.0000000E+00  0.6000000E-02
      1        -23.331628   1.000000
      2        -23.331626   1.000000
      3        -23.279310   1.000000
      4        -23.207365   1.000000
      5        -23.182709   1.000000
      6        -23.130068   1.000000
      7        -23.113284   1.000000
      8        -23.056377   1.000000
      9        -23.004730   1.000000
     10        -23.004728   1.000000
     11         -6.568993   1.000000
     12         -3.294692   1.000000
     13          1.498493   1.000000
     14          1.498515   1.000000
     15          5.740123   0.000000
     16          6.603255   0.000000
     17         14.309898   0.000000
     18         14.330130   0.000000
 
  0.5000000E+00  0.4000000E+00  0.0000000E+00  0.2400000E-01
      1        -23.339192   1.000000
      2        -23.333874   1.000000
      3        -23.258535   1.000000
      4        -23.221058   1.000000
      5        -23.165904   1.000000
      6        -23.130585   1.000000
      7        -23.115729   1.000000
      8        -23.078083   1.000000
      9        -23.000924   1.000000
     10        -22.995931   1.000000
     11         -5.809586   1.000000
     12         -4.209328   1.000000
     13          0.932348   1.000000
     14          1.435246   1.000000
     15          6.030035   0.000000
     16          6.824061   0.000000
     17         14.236619   0.000000
     18         14.552412   0.000000
 
 -0.4000000E+00  0.4000000E+00  0.0000000E+00  0.1200000E-01
      1        -23.348453   1.000000
      2        -23.335197   1.000000
      3        -23.245889   1.000000
      4        -23.204748   1.000000
      5        -23.155290   1.000000
      6        -23.143439   1.000000
      7        -23.129920   1.000000
      8        -23.090774   1.000000
      9        -22.999251   1.000000
     10        -22.986765   1.000000
     11         -5.366317   1.000000
     12         -4.630502   1.000000
     13          0.176782   1.000000
     14          1.624776   1.000000
     15          6.238727   0.000000
     16          8.485042   0.000000
     17         13.659682   0.000000
     18         14.561041   0.000000
 
  0.5000000E+00  0.5000000E+00  0.0000000E+00  0.3000000E-02
      1        -23.334458   1.000000
      2        -23.334456   1.000000
      3        -23.247507   1.000000
      4        -23.247502   1.000000
      5        -23.147790   1.000000
      6        -23.147789   1.000000
      7        -23.089975   1.000000
      8        -23.089970   1.000000
      9        -22.999921   1.000000
     10        -22.999918   1.000000
     11         -5.055342   1.000000
     12         -5.055335   1.000000
     13          1.307791   1.000000
     14          1.307813   1.000000
     15          5.946036   0.000000
     16          5.946048   0.000000
     17         15.496257   0.000000
     18         15.503974   0.000000
 
  0.3000000E+00  0.2000000E+00  0.1000000E+00  0.2400000E-01
      1        -23.322854   1.000000
      2        -23.317933   1.000000
      3        -23.292290   1.000000
      4        -23.236864   1.000000
      5        -23.213974   1.000000
      6        -23.111878   1.000000
      7        -23.068080   1.000000
      8        -23.048086   1.000000
      9        -23.027852   1.000000
     10        -23.012506   1.000000
     11         -8.506166   1.000000
     12          0.001647   1.000000
     13          2.308214   1.000000
     14          3.448772   1.000000
     15          7.551289   0.000000
     16          7.986970   0.000000
     17         10.189085   0.000000
     18         10.293669   0.000000
 
  0.4000000E+00  0.2000000E+00  0.1000000E+00  0.4800000E-01
      1        -23.331656   1.000000
      2        -23.326403   1.000000
      3        -23.277692   1.000000
      4        -23.225361   1.000000
      5        -23.200216   1.000000
      6        -23.122974   1.000000
      7        -23.078632   1.000000
      8        -23.065434   1.000000
      9        -23.014342   1.000000
     10        -23.005048   1.000000
     11         -7.877795   1.000000
     12         -1.533297   1.000000
     13          1.573965   1.000000
     14          3.028781   1.000000
     15          7.602754   0.000000
     16          8.551475   0.000000
     17         10.247856   0.000000
     18         10.841453   0.000000
 
  0.5000000E+00  0.2000000E+00  0.1000000E+00  0.4800000E-01
      1        -23.339271   1.000000
      2        -23.330252   1.000000
      3        -23.264244   1.000000
      4        -23.214361   1.000000
      5        -23.195662   1.000000
      6        -23.123465   1.000000
      7        -23.089999   1.000000
      8        -23.081666   1.000000
      9        -23.007098   1.000000
     10        -22.998232   1.000000
     11         -7.128618   1.000000
     12         -2.954839   1.000000
     13          1.231790   1.000000
     14          2.645983   1.000000
     15          7.421970   0.000000
     16          8.772406   0.000000
     17         10.604909   0.000000
     18         11.717970   0.000000
 
 -0.4000000E+00  0.2000000E+00  0.1000000E+00  0.2400000E-01
      1        -23.341977   1.000000
      2        -23.331290   1.000000
      3        -23.258764   1.000000
      4        -23.207038   1.000000
      5        -23.198263   1.000000
      6        -23.117793   1.000000
      7        -23.101582   1.000000
      8        -23.085348   1.000000
      9        -23.005224   1.000000
     10        -22.995229   1.000000
     11         -6.693968   1.000000
     12         -3.629503   1.000000
     13          1.133720   1.000000
     14          2.498281   1.000000
     15          7.352184   0.000000
     16          8.732880   0.000000
     17         10.651373   0.000000
     18         13.112319   0.000000
 
  0.4000000E+00  0.3000000E+00  0.1000000E+00  0.2400000E-01
      1        -23.330482   1.000000
      2        -23.329201   1.000000
      3        -23.283832   1.000000
      4        -23.214478   1.000000
      5        -23.177722   1.000000
      6        -23.154133   1.000000
      7        -23.084455   1.000000
      8        -23.054144   1.000000
      9        -23.011357   1.000000
     10        -23.006826   1.000000
     11         -7.636319   1.000000
     12         -1.699527   1.000000
     13          1.471225   1.000000
     14          2.232162   1.000000
     15          6.941640   0.000000
     16          8.166986   0.000000
     17         10.630802   0.000000
     18         12.270643   0.000000
 
  0.5000000E+00  0.3000000E+00  0.1000000E+00  0.4800000E-01
      1        -23.341616   1.000000
      2        -23.333783   1.000000
      3        -23.263015   1.000000
      4        -23.200876   1.000000
      5        -23.169927   1.000000
      6        -23.159620   1.000000
      7        -23.100193   1.000000
      8        -23.075481   1.000000
      9        -23.003253   1.000000
     10        -22.995211   1.000000
     11         -6.900551   1.000000
     12         -2.885651   1.000000
     13          0.777764   1.000000
     14          1.891565   1.000000
     15          7.346224   0.000000
     16          8.976491   0.000000
     17         10.195853   0.000000
     18         12.686881   0.000000
 
 -0.4000000E+00  0.3000000E+00  0.1000000E+00  0.4800000E-01
      1        -23.348394   1.000000
      2        -23.336128   1.000000
      3        -23.247568   1.000000
      4        -23.190142   1.000000
      5        -23.172434   1.000000
      6        -23.152948   1.000000
      7        -23.116300   1.000000
      8        -23.089780   1.000000
      9        -22.999533   1.000000
     10        -22.987666   1.000000
     11         -6.266568   1.000000
     12         -3.749542   1.000000
     13          0.320720   1.000000
     14          1.830182   1.000000
     15          7.493880   0.000000
     16          9.694582   0.000000
     17         10.920637   0.000000
     18         12.452552   0.000000
 
 -0.3000000E+00  0.3000000E+00  0.1000000E+00  0.4800000E-01
      1        -23.348015   1.000000
      2        -23.336698   1.000000
      3        -23.245613   1.000000
      4        -23.196888   1.000000
      5        -23.174556   1.000000
      6        -23.144195   1.000000
      7        -23.116304   1.000000
      8        -23.092233   1.000000
      9        -22.998521   1.000000
     10        -22.988661   1.000000
     11         -6.465739   1.000000
     12         -3.488849   1.000000
     13          0.188527   1.000000
     14          2.086247   1.000000
     15          7.768764   0.000000
     16          9.490141   0.000000
     17         11.233344   0.000000
     18         12.505244   0.000000
 
 -0.2000000E+00  0.3000000E+00  0.1000000E+00  0.2400000E-01
      1        -23.340499   1.000000
      2        -23.334802   1.000000
      3        -23.257894   1.000000
      4        -23.213674   1.000000
      5        -23.183012   1.000000
      6        -23.137368   1.000000
      7        -23.091577   1.000000
      8        -23.086904   1.000000
      9        -23.000502   1.000000
     10        -22.998356   1.000000
     11         -7.201537   1.000000
     12         -2.485746   1.000000
     13          0.547855   1.000000
     14          2.560595   1.000000
     15          8.094333   0.000000
     16          9.020148   0.000000
     17         10.073245   0.000000
     18         11.923148   0.000000
 
  0.5000000E+00  0.4000000E+00  0.1000000E+00  0.2400000E-01
      1        -23.337168   1.000000
      2        -23.337006   1.000000
      3        -23.264628   1.000000
      4        -23.196539   1.000000
      5        -23.183578   1.000000
      6        -23.138537   1.000000
      7        -23.114226   1.000000
      8        -23.071507   1.000000
      9        -22.999090   1.000000
     10        -22.998863   1.000000
     11         -6.456396   1.000000
     12         -3.397787   1.000000
     13          1.000934   1.000000
     14          1.363573   1.000000
     15          6.669657   0.000000