       N       E                     dE             d eps       ncg     rms          ort
DAV:   1    -0.767957753417E+03   -0.76796E+03   -0.14230E+04  2124   0.450E+03
DAV:   2    -0.920431414126E+03   -0.15247E+03   -0.14978E+03  2124   0.538E+02
DAV:   3    -0.939828175467E+03   -0.19397E+02   -0.19258E+02  2124   0.142E+02
DAV:   4    -0.940388172221E+03   -0.56000E+00   -0.55875E+00  2124   0.271E+01
DAV:   5    -0.108616818119E+02    0.92953E+03   -0.67927E+00  2124   0.472E+01
SDA:   6    -0.106199582015E+02    0.24172E+00   -0.67927E+00  2124   0.461E+00 0.000E+00
CGA:   7    -0.106834715869E+02   -0.63513E-01   -0.63384E-01  2124   0.111E+00 0.155E-03
CGA:   8    -0.107087081691E+02   -0.25237E-01   -0.25235E-01  2124   0.154E-01 0.101E-03
CGA:   9    -0.107132498935E+02   -0.45417E-02   -0.45410E-02  2124   0.957E-02 0.380E-05
CGA:  10    -0.107154040110E+02   -0.21541E-02   -0.21540E-02  2124   0.448E-02 0.107E-04
CGA:  11    -0.107166686357E+02   -0.12646E-02   -0.12651E-02  2124   0.182E-02-0.543E-05
CGA:  12    -0.107171217671E+02   -0.45313E-03   -0.45307E-03  2124   0.557E-03 0.108E-05
CGA:  13    -0.107172505408E+02   -0.12877E-03   -0.12864E-03  2124   0.123E-03 0.630E-05
CGA:  14    -0.107172767715E+02   -0.26231E-04   -0.26232E-04  2124   0.337E-04 0.625E-06
CGA:  15    -0.107172841375E+02   -0.73660E-05   -0.73642E-05  2124   0.908E-05 0.422E-06
CGA:  16    -0.107172864268E+02   -0.22893E-05   -0.23059E-05  2124   0.279E-05-0.445E-06
CGA:  17    -0.107172870366E+02   -0.60985E-06   -0.60895E-06  2124   0.724E-06 0.548E-07
   1 F= -.10717287E+02 E0= -.10717287E+02  d E =-.682355E-11
