PROCAR lm decomposed
# of k-points:  100         # of bands:   18         # of ions:    2

 k-point     1 :    0.37500000 0.37500000 0.75000000     weight = 0.01000000

band     1 # energy  -18.92515195 # occ.  2.00000000

ion      s     py     pz     px    dxy    dyz    dz2    dxz  x2-y2    tot
    1  0.000  0.000  0.000  0.000  0.138  0.165  0.028  0.165  0.000  0.497
    2  0.000  0.000  0.000  0.000  0.138  0.165  0.028  0.165  0.000  0.497
tot    0.000  0.000  0.000  0.000  0.275  0.331  0.056  0.331  0.000  0.993

band     2 # energy  -18.90333019 # occ.  2.00000000

ion      s     py     pz     px    dxy    dyz    dz2    dxz  x2-y2    tot
    1  0.000  0.000  0.000  0.000  0.000  0.239  0.000  0.239  0.019  0.497
    2  0.000  0.000  0.000  0.000  0.000  0.239  0.000  0.239  0.019  0.497
tot    0.000  0.000  0.000  0.000  0.000  0.478  0.000  0.478  0.038  0.994

band     3 # energy  -18.79378330 # occ.  2.00000000

ion      s     py     pz     px    dxy    dyz    dz2    dxz  x2-y2    tot
    1  0.001  0.000  0.000  0.000  0.280  0.017  0.182  0.017  0.000  0.496
    2  0.001  0.000  0.000  0.000  0.280  0.017  0.182  0.017  0.000  0.496
tot    0.001  0.000  0.000  0.000  0.560  0.033  0.364  0.033  0.000  0.993

band     4 # energy  -18.71597091 # occ.  2.00000000

ion      s     py     pz     px    dxy    dyz    dz2    dxz  x2-y2    tot
    1  0.001  0.000  0.000  0.000  0.181  0.077  0.162  0.077  0.000  0.497
    2  0.001  0.000  0.000  0.000  0.181  0.077  0.162  0.077  0.000  0.497
tot    0.002  0.000  0.000  0.000  0.361  0.154  0.323  0.154  0.000  0.994

band     5 # energy  -18.67921552 # occ.  2.00000000

ion      s     py     pz     px    dxy    dyz    dz2    dxz  x2-y2    tot
    1  0.000  0.000  0.000  0.000  0.000  0.009  0.000  0.009  0.478  0.497
    2  0.000  0.000  0.000  0.000  0.000  0.009  0.000  0.009  0.478  0.497
tot    0.000  0.000  0.000  0.000  0.000  0.019  0.000  0.019  0.957  0.995

band     6 # energy  -18.66265233 # occ.  2.00000000

ion      s     py     pz     px    dxy    dyz    dz2    dxz  x2-y2    tot
    1  0.000  0.000  0.000  0.000  0.088  0.067  0.275  0.067  0.000  0.498
    2  0.000  0.000  0.000  0.000  0.088  0.067  0.275  0.067  0.000  0.498
tot    0.001  0.000  0.000  0.000  0.177  0.134  0.550  0.134  0.000  0.995

band     7 # energy  -18.65477710 # occ.  2.00000000

ion      s     py     pz     px    dxy    dyz    dz2    dxz  x2-y2    tot
    1  0.000  0.000  0.000  0.000  0.000  0.015  0.000  0.015  0.467  0.498
    2  0.000  0.000  0.000  0.000  0.000  0.015  0.000  0.015  0.467  0.498
tot    0.000  0.000  0.000  0.000  0.000  0.031  0.000  0.031  0.933  0.995

band     8 # energy  -18.59023654 # occ.  2.00000000

ion      s     py     pz     px    dxy    dyz    dz2    dxz  x2-y2    tot
    1  0.000  0.000  0.000  0.000  0.178  0.006  0.308  0.006  0.000  0.498
    2  0.000  0.000  0.000  0.000  0.178  0.006  0.308  0.006  0.000  0.498
tot    0.001  0.000  0.000  0.000  0.356  0.012  0.615  0.012  0.000  0.997

band     9 # energy  -18.46703332 # occ.  2.00000000

ion      s     py     pz     px    dxy    dyz    dz2    dxz  x2-y2    tot
    1  0.000  0.000  0.000  0.000  0.000  0.234  0.000  0.234  0.031  0.499
    2  0.000  0.000  0.000  0.000  0.000  0.234  0.000  0.234  0.031  0.499
tot    0.000  0.000  0.000  0.000  0.000  0.467  0.000  0.467  0.062  0.998

band    10 # energy  -18.44833606 # occ.  2.00000000

ion      s     py     pz     px    dxy    dyz    dz2    dxz  x2-y2    tot
    1  0.000  0.000  0.000  0.000  0.128  0.166  0.040  0.166  0.000  0.499
    2  0.000  0.000  0.000  0.000  0.128  0.166  0.040  0.166  0.000  0.499
tot    0.000  0.000  0.000  0.000  0.256  0.331  0.079  0.331  0.000  0.998

band    11 # energy   -3.69122238 # occ.  2.00000000

ion      s     py     pz     px    dxy    dyz    dz2    dxz  x2-y2    tot
    1  0.307  0.007  0.033  0.007  0.007  0.001  0.000  0.001  0.000  0.363
    2  0.307  0.007  0.033  0.007  0.007  0.001  0.000  0.001  0.000  0.363
tot    0.614  0.014  0.067  0.014  0.013  0.002  0.000  0.002  0.000  0.727

band    12 # energy   -2.57039776 # occ.  2.00000000

ion      s     py     pz     px    dxy    dyz    dz2    dxz  x2-y2    tot
    1  0.270  0.008  0.061  0.008  0.005  0.002  0.001  0.002  0.000  0.357
    2  0.270  0.008  0.061  0.008  0.005  0.002  0.001  0.002  0.000  0.357
tot    0.541  0.016  0.121  0.016  0.011  0.003  0.002  0.003  0.000  0.714

band    13 # energy    1.18211714 # occ.  2.00000000

ion      s     py     pz     px    dxy    dyz    dz2    dxz  x2-y2    tot
    1  0.000  0.087  0.064  0.087  0.000  0.000  0.005  0.000  0.000  0.244
    2  0.000  0.087  0.064  0.087  0.000  0.000  0.005  0.000  0.000  0.244
tot    0.000  0.174  0.128  0.174  0.000  0.000  0.011  0.000  0.000  0.487

band    14 # energy    3.12764577 # occ.  2.00000000

ion      s     py     pz     px    dxy    dyz    dz2    dxz  x2-y2    tot
    1  0.000  0.148  0.000  0.148  0.000  0.003  0.000  0.003  0.003  0.305
    2  0.000  0.148  0.000  0.148  0.000  0.003  0.000  0.003  0.003  0.305
tot    0.000  0.296  0.000  0.296  0.000  0.006  0.000  0.006  0.006  0.611

band    15 # energy    7.15423349 # occ.  0.00000000

ion      s     py     pz     px    dxy    dyz    dz2    dxz  x2-y2    tot
    1  0.067  0.000  0.069  0.000  0.035  0.000  0.030  0.000  0.000  0.203
    2  0.067  0.000  0.069  0.000  0.035  0.000  0.030  0.000  0.000  0.203
tot    0.135  0.001  0.139  0.001  0.071  0.000  0.060  0.000  0.000  0.406

band    16 # energy   10.36120819 # occ.  0.00000000

ion      s     py     pz     px    dxy    dyz    dz2    dxz  x2-y2    tot
    1  0.039  0.050  0.038  0.050  0.043  0.001  0.026  0.001  0.000  0.247
    2  0.039  0.050  0.038  0.050  0.043  0.001  0.026  0.001  0.000  0.247
tot    0.079  0.099  0.076  0.099  0.086  0.001  0.052  0.001  0.000  0.494

band    17 # energy   13.96586850 # occ.  0.00000000

ion      s     py     pz     px    dxy    dyz    dz2    dxz  x2-y2    tot
    1  0.051  0.089  0.048  0.089  0.001  0.011  0.007  0.011  0.000  0.307
    2  0.051  0.089  0.048  0.089  0.001  0.011  0.007  0.011  0.000  0.307
tot    0.102  0.177  0.096  0.177  0.002  0.023  0.015  0.023  0.000  0.614

band    18 # energy   13.97123941 # occ.  0.00000000

ion      s     py     pz     px    dxy    dyz    dz2    dxz  x2-y2    tot
    1  0.000  0.112  0.000  0.112  0.000  0.024  0.000  0.024  0.033  0.305
    2  0.000  0.112  0.000  0.112  0.000  0.024  0.000  0.024  0.033  0.305
tot    0.000  0.225  0.000  0.225  0.000  0.047  0.000  0.047  0.066  0.610


 k-point     2 :    0.38157895 0.36842105 0.75000000     weight = 0.01000000

band     1 # energy  -18.92513944 # occ.  2.00000000

ion      s     py     pz     px    dxy    dyz    dz2    dxz  x2-y2    tot
    1  0.000  0.000  0.000  0.000  0.138  0.168  0.028  0.163  0.000  0.497
    2  0.000  0.000  0.000  0.000  0.138  0.168  0.028  0.163  0.000  0.497
tot    0.000  0.000  0.000  0.000  0.275  0.335  0.056  0.326  0.000  0.993

band     2 # energy  -18.90344590 # occ.  2.00000000

ion      s     py     pz     px    dxy    dyz    dz2    dxz  x2-y2    tot
    1  0.000  0.000  0.000  0.000  0.001  0.242  0.000  0.235  0.019  0.497
    2  0.000  0.000  0.000  0.000  0.001  0.242  0.000  0.235  0.019  0.497
tot    0.000  0.000  0.000  0.000  0.002  0.485  0.001  0.469  0.037  0.994

band     3 # energy  -18.79352786 # occ.  2.00000000

ion      s     py     pz     px    dxy    dyz    dz2    dxz  x2-y2    tot
    1  0.001  0.000  0.000  0.000  0.279  0.012  0.182  0.023  0.000  0.496
    2  0.001  0.000  0.000  0.000  0.279  0.012  0.182  0.023  0.000  0.496
tot    0.001  0.000  0.000  0.000  0.559  0.023  0.363  0.045  0.000  0.993

band     4 # energy  -18.71602637 # occ.  2.00000000

ion      s     py     pz     px    dxy    dyz    dz2    dxz  x2-y2    tot
    1  0.001  0.000  0.000  0.000  0.181  0.072  0.161  0.082  0.000  0.497
    2  0.001  0.000  0.000  0.000  0.181  0.072  0.161  0.082  0.000  0.497
tot    0.002  0.000  0.000  0.000  0.361  0.143  0.323  0.165  0.001  0.994

band     5 # energy  -18.67930595 # occ.  2.00000000

ion      s     py     pz     px    dxy    dyz    dz2    dxz  x2-y2    tot
    1  0.000  0.000  0.000  0.000  0.000  0.015  0.003  0.005  0.474  0.497
    2  0.000  0.000  0.000  0.000  0.000  0.015  0.003  0.005  0.474  0.497
tot    0.000  0.000  0.000  0.000  0.001  0.030  0.006  0.010  0.947  0.995

band     6 # energy  -18.66249060 # occ.  2.00000000

ion      s     py     pz     px    dxy    dyz    dz2    dxz  x2-y2    tot
    1  0.000  0.000  0.000  0.000  0.088  0.060  0.272  0.072  0.005  0.498
    2  0.000  0.000  0.000  0.000  0.088  0.060  0.272  0.072  0.005  0.498
tot    0.001  0.000  0.000  0.000  0.176  0.120  0.545  0.144  0.009  0.995

band     7 # energy  -18.65482410 # occ.  2.00000000

ion      s     py     pz     px    dxy    dyz    dz2    dxz  x2-y2    tot
    1  0.000  0.000  0.000  0.000  0.000  0.018  0.001  0.013  0.466  0.498
    2  0.000  0.000  0.000  0.000  0.000  0.018  0.001  0.013  0.466  0.498
tot    0.000  0.000  0.000  0.000  0.000  0.036  0.002  0.027  0.931  0.995

band     8 # energy  -18.59042997 # occ.  2.00000000

ion      s     py     pz     px    dxy    dyz    dz2    dxz  x2-y2    tot
    1  0.000  0.000  0.000  0.000  0.177  0.004  0.307  0.009  0.001  0.498
    2  0.000  0.000  0.000  0.000  0.177  0.004  0.307  0.009  0.001  0.498
tot    0.001  0.000  0.000  0.000  0.355  0.008  0.614  0.018  0.001  0.997

band     9 # energy  -18.46693644 # occ.  2.00000000

ion      s     py     pz     px    dxy    dyz    dz2    dxz  x2-y2    tot
    1  0.000  0.000  0.000  0.000  0.001  0.237  0.000  0.230  0.031  0.499
    2  0.000  0.000  0.000  0.000  0.001  0.237  0.000  0.230  0.031  0.499
tot    0.000  0.000  0.000  0.000  0.001  0.474  0.001  0.460  0.062  0.998

band    10 # energy  -18.44834405 # occ.  2.00000000

ion      s     py     pz     px    dxy    dyz    dz2    dxz  x2-y2    tot
    1  0.000  0.000  0.000  0.000  0.128  0.168  0.039  0.163  0.000  0.499
    2  0.000  0.000  0.000  0.000  0.128  0.168  0.039  0.163  0.000  0.499
tot    0.000  0.000  0.000  0.000  0.256  0.336  0.079  0.327  0.000  0.998

band    11 # energy   -3.68951075 # occ.  2.00000000

ion      s     py     pz     px    dxy    dyz    dz2    dxz  x2-y2    tot
    1  0.307  0.008  0.033  0.006  0.007  0.001  0.000  0.001  0.000  0.363
    2  0.307  0.008  0.033  0.006  0.007  0.001  0.000  0.001  0.000  0.363
tot    0.614  0.015  0.067  0.012  0.013  0.002  0.000  0.002  0.000  0.727

band    12 # energy   -2.57135416 # occ.  2.00000000

ion      s     py     pz     px    dxy    dyz    dz2    dxz  x2-y2    tot
    1  0.270  0.009  0.061  0.007  0.005  0.001  0.001  0.002  0.000  0.357
    2  0.270  0.009  0.061  0.007  0.005  0.001  0.001  0.002  0.000  0.357
tot    0.541  0.018  0.121  0.015  0.011  0.003  0.002  0.004  0.000  0.714

band    13 # energy    1.18350476 # occ.  2.00000000

ion      s     py     pz     px    dxy    dyz    dz2    dxz  x2-y2    tot
    1  0.000  0.086  0.064  0.088  0.000  0.000  0.005  0.000  0.000  0.244
    2  0.000  0.086  0.064  0.088  0.000  0.000  0.005  0.000  0.000  0.244
tot    0.000  0.172  0.128  0.176  0.000  0.000  0.011  0.000  0.000  0.488

band    14 # energy    3.11727674 # occ.  2.00000000

ion      s     py     pz     px    dxy    dyz    dz2    dxz  x2-y2    tot
    1  0.000  0.147  0.000  0.148  0.000  0.003  0.000  0.003  0.003  0.305
    2  0.000  0.147  0.000  0.148  0.000  0.003  0.000  0.003  0.003  0.305
tot    0.000  0.294  0.001  0.297  0.000  0.006  0.000  0.006  0.006  0.609

band    15 # energy    7.17038806 # occ.  0.00000000

ion      s     py     pz     px    dxy    dyz    dz2    dxz  x2-y2    tot
    1  0.067  0.000  0.069  0.002  0.035  0.000  0.030  0.000  0.000  0.203
    2  0.067  0.000  0.069  0.002  0.035  0.000  0.030  0.000  0.000  0.203
tot    0.135  0.000  0.138  0.003  0.071  0.000  0.060  0.000  0.000  0.407

band    16 # energy   10.36257982 # occ.  0.00000000

ion      s     py     pz     px    dxy    dyz    dz2    dxz  x2-y2    tot
    1  0.039  0.049  0.038  0.050  0.043  0.001  0.026  0.001  0.000  0.247
    2  0.039  0.049  0.038  0.050  0.043  0.001  0.026  0.001  0.000  0.247
tot    0.079  0.098  0.076  0.101  0.086  0.001  0.052  0.001  0.000  0.494

band    17 # energy   13.92580582 # occ.  0.00000000

ion      s     py     pz     px    dxy    dyz    dz2    dxz  x2-y2    tot
    1  0.002  0.099  0.006  0.115  0.001  0.011  0.000  0.038  0.032  0.303
    2  0.002  0.099  0.006  0.115  0.001  0.011  0.000  0.038  0.032  0.303
tot    0.004  0.199  0.012  0.229  0.001  0.022  0.000  0.076  0.063  0.607

band    18 # energy   13.94177874 # occ.  0.00000000

ion      s     py     pz     px    dxy    dyz    dz2    dxz  x2-y2    tot
    1  0.050  0.082  0.047  0.093  0.001  0.007  0.007  0.016  0.001  0.306
    2  0.050  0.082  0.047  0.093  0.001  0.007  0.007  0.016  0.001  0.306
tot    0.101  0.164  0.095  0.187  0.002  0.014  0.014  0.033  0.002  0.611


 k-point     3 :    0.38815789 0.36184211 0.75000000     weight = 0.01000000

band     1 # energy  -18.92513893 # occ.  2.00000000

ion      s     py     pz     px    dxy    dyz    dz2    dxz  x2-y2    tot
    1  0.000  0.000  0.000  0.000  0.138  0.170  0.028  0.161  0.000  0.497
    2  0.000  0.000  0.000  0.000  0.138  0.170  0.028  0.161  0.000  0.497
tot    0.000  0.000  0.000  0.000  0.275  0.340  0.056  0.321  0.000  0.993

band     2 # energy  -18.90390138 # occ.  2.00000000

ion      s     py     pz     px    dxy    dyz    dz2    dxz  x2-y2    tot
    1  0.000  0.000  0.000  0.000  0.003  0.245  0.001  0.229  0.019  0.497
    2  0.000  0.000  0.000  0.000  0.003  0.245  0.001  0.229  0.019  0.497
tot    0.000  0.000  0.000  0.000  0.006  0.490  0.002  0.458  0.037  0.994

band     3 # energy  -18.79285025 # occ.  2.00000000

ion      s     py     pz     px    dxy    dyz    dz2    dxz  x2-y2    tot
    1  0.001  0.000  0.000  0.000  0.277  0.008  0.180  0.029  0.001  0.496
    2  0.001  0.000  0.000  0.000  0.277  0.008  0.180  0.029  0.001  0.496
tot    0.001  0.000  0.000  0.000  0.555  0.015  0.360  0.059  0.002  0.993

band     4 # energy  -18.71620082 # occ.  2.00000000

ion      s     py     pz     px    dxy    dyz    dz2    dxz  x2-y2    tot
    1  0.001  0.000  0.000  0.000  0.181  0.066  0.160  0.088  0.002  0.497
    2  0.001  0.000  0.000  0.000  0.181  0.066  0.160  0.088  0.002  0.497
tot    0.002  0.000  0.000  0.000  0.361  0.132  0.320  0.176  0.004  0.994

band     5 # energy  -18.67957292 # occ.  2.00000000

ion      s     py     pz     px    dxy    dyz    dz2    dxz  x2-y2    tot
    1  0.000  0.000  0.000  0.000  0.001  0.022  0.012  0.002  0.460  0.497
    2  0.000  0.000  0.000  0.000  0.001  0.022  0.012  0.002  0.460  0.497
tot    0.000  0.000  0.000  0.000  0.003  0.043  0.024  0.004  0.921  0.995

band     6 # energy  -18.66202384 # occ.  2.00000000

ion      s     py     pz     px    dxy    dyz    dz2    dxz  x2-y2    tot
    1  0.000  0.000  0.000  0.000  0.087  0.053  0.264  0.076  0.017  0.498
    2  0.000  0.000  0.000  0.000  0.087  0.053  0.264  0.076  0.017  0.498
tot    0.001  0.000  0.000  0.000  0.173  0.106  0.529  0.152  0.035  0.995

band     7 # energy  -18.65501758 # occ.  2.00000000

ion      s     py     pz     px    dxy    dyz    dz2    dxz  x2-y2    tot
    1  0.000  0.000  0.000  0.000  0.000  0.021  0.003  0.011  0.462  0.498
    2  0.000  0.000  0.000  0.000  0.000  0.021  0.003  0.011  0.462  0.498
tot    0.000  0.000  0.000  0.000  0.000  0.041  0.006  0.023  0.925  0.995

band     8 # energy  -18.59107561 # occ.  2.00000000

ion      s     py     pz     px    dxy    dyz    dz2    dxz  x2-y2    tot
    1  0.000  0.000  0.000  0.000  0.175  0.002  0.305  0.012  0.003  0.498
    2  0.000  0.000  0.000  0.000  0.175  0.002  0.305  0.012  0.003  0.498
tot    0.001  0.000  0.000  0.000  0.351  0.004  0.610  0.025  0.006  0.997

band     9 # energy  -18.46668458 # occ.  2.00000000

ion      s     py     pz     px    dxy    dyz    dz2    dxz  x2-y2    tot
    1  0.000  0.000  0.000  0.000  0.002  0.239  0.001  0.225  0.031  0.499
    2  0.000  0.000  0.000  0.000  0.002  0.239  0.001  0.225  0.031  0.499
tot    0.000  0.000  0.000  0.000  0.005  0.478  0.002  0.451  0.061  0.998

band    10 # energy  -18.44837083 # occ.  2.00000000

ion      s     py     pz     px    dxy    dyz    dz2    dxz  x2-y2    tot
    1  0.000  0.000  0.000  0.000  0.128  0.170  0.039  0.161  0.000  0.499
    2  0.000  0.000  0.000  0.000  0.128  0.170  0.039  0.161  0.000  0.499
tot    0.000  0.000  0.000  0.000  0.256  0.341  0.079  0.322  0.000  0.998

band    11 # energy   -3.68438445 # occ.  2.00000000

ion      s     py     pz     px    dxy    dyz    dz2    dxz  x2-y2    tot
    1  0.307  0.009  0.033  0.005  0.007  0.001  0.000  0.001  0.000  0.363
    2  0.307  0.009  0.033  0.005  0.007  0.001  0.000  0.001  0.000  0.363
tot    0.614  0.017  0.067  0.011  0.013  0.002  0.000  0.003  0.000  0.727

band    12 # energy   -2.57424260 # occ.  2.00000000

ion      s     py     pz     px    dxy    dyz    dz2    dxz  x2-y2    tot
    1  0.271  0.010  0.060  0.007  0.005  0.001  0.001  0.002  0.000  0.357
    2  0.271  0.010  0.060  0.007  0.005  0.001  0.001  0.002  0.000  0.357
tot    0.542  0.020  0.121  0.014  0.011  0.003  0.002  0.004  0.000  0.714

band    13 # energy    1.18766290 # occ.  2.00000000

ion      s     py     pz     px    dxy    dyz    dz2    dxz  x2-y2    tot
    1  0.000  0.085  0.064  0.089  0.000  0.000  0.005  0.000  0.000  0.244
    2  0.000  0.085  0.064  0.089  0.000  0.000  0.005  0.000  0.000  0.244
tot    0.000  0.170  0.128  0.177  0.000  0.001  0.011  0.000  0.000  0.488

band    14 # energy    3.08673878 # occ.  2.00000000

ion      s     py     pz     px    dxy    dyz    dz2    dxz  x2-y2    tot
    1  0.000  0.145  0.002  0.147  0.000  0.003  0.000  0.003  0.003  0.303
    2  0.000  0.145  0.002  0.147  0.000  0.003  0.000  0.003  0.003  0.303
tot    0.001  0.289  0.004  0.295  0.000  0.006  0.001  0.005  0.006  0.606

band    15 # energy    7.21829609 # occ.  0.00000000

ion      s     py     pz     px    dxy    dyz    dz2    dxz  x2-y2    tot
    1  0.067  0.001  0.068  0.004  0.035  0.000  0.030  0.000  0.000  0.205
    2  0.067  0.001  0.068  0.004  0.035  0.000  0.030  0.000  0.000  0.205
tot    0.133  0.002  0.136  0.008  0.071  0.000  0.059  0.001  0.000  0.410

band    16 # energy   10.36669349 # occ.  0.00000000

ion      s     py     pz     px    dxy    dyz    dz2    dxz  x2-y2    tot
    1  0.039  0.048  0.038  0.051  0.043  0.001  0.026  0.001  0.000  0.247
    2  0.039  0.048  0.038  0.051  0.043  0.001  0.026  0.001  0.000  0.247
tot    0.079  0.097  0.076  0.102  0.086  0.001  0.052  0.001  0.000  0.494

band    17 # energy   13.81057642 # occ.  0.00000000

ion      s     py     pz     px    dxy    dyz    dz2    dxz  x2-y2    tot
    1  0.007  0.084  0.017  0.109  0.002  0.004  0.000  0.047  0.029  0.300
    2  0.007  0.084  0.017  0.109  0.002  0.004  0.000  0.047  0.029  0.300
tot    0.013  0.169  0.035  0.218  0.004  0.009  0.000  0.094  0.058  0.599

band    18 # energy   13.87260181 # occ.  0.00000000

ion      s     py     pz     px    dxy    dyz    dz2    dxz  x2-y2    tot
    1  0.049  0.075  0.047  0.096  0.001  0.004  0.007  0.021  0.003  0.302
    2  0.049  0.075  0.047  0.096  0.001  0.004  0.007  0.021  0.003  0.302
tot    0.098  0.149  0.093  0.191  0.002  0.008  0.014  0.043  0.007  0.605


 k-point     4 :    0.39473684 0.35526316 0.75000000     weight = 0.01000000

band     1 # energy  -18.92516957 # occ.  2.00000000

ion      s     py     pz     px    dxy    dyz    dz2    dxz  x2-y2    tot
    1  0.000  0.000  0.000  0.000  0.137  0.172  0.028  0.159  0.000  0.497
    2  0.000  0.000  0.000  0.000  0.137  0.172  0.028  0.159  0.000  0.497
tot    0.000  0.000  0.000  0.000  0.275  0.344  0.056  0.317  0.000  0.993

band     2 # energy  -18.90448542 # occ.  2.00000000

ion      s     py     pz     px    dxy    dyz    dz2    dxz  x2-y2    tot
    1  0.000  0.000  0.000  0.000  0.007  0.246  0.002  0.223  0.018  0.497
    2  0.000  0.000  0.000  0.000  0.007  0.246  0.002  0.223  0.018  0.497
tot    0.000  0.000  0.000  0.000  0.014  0.492  0.004  0.446  0.036  0.994

band     3 # energy  -18.79158964 # occ.  2.00000000

ion      s     py     pz     px    dxy    dyz    dz2    dxz  x2-y2    tot
    1  0.001  0.000  0.000  0.000  0.274  0.005  0.178  0.037  0.002  0.496
    2  0.001  0.000  0.000  0.000  0.274  0.005  0.178  0.037  0.002  0.496
tot    0.001  0.000  0.000  0.000  0.548  0.009  0.355  0.074  0.004  0.993

band     4 # energy  -18.71652670 # occ.  2.00000000

ion      s     py     pz     px    dxy    dyz    dz2    dxz  x2-y2    tot
    1  0.001  0.000  0.000  0.000  0.181  0.060  0.158  0.093  0.004  0.497
    2  0.001  0.000  0.000  0.000  0.181  0.060  0.158  0.093  0.004  0.497
tot    0.002  0.000  0.000  0.000  0.362  0.121  0.316  0.186  0.008  0.994

band     5 # energy  -18.67991843 # occ.  2.00000000

ion      s     py     pz     px    dxy    dyz    dz2    dxz  x2-y2    tot
    1  0.000  0.000  0.000  0.000  0.003  0.028  0.024  0.000  0.442  0.497
    2  0.000  0.000  0.000  0.000  0.003  0.028  0.024  0.000  0.442  0.497
tot    0.000  0.000  0.000  0.000  0.005  0.055  0.048  0.001  0.884  0.995

band     6 # energy  -18.66130461 # occ.  2.00000000

ion      s     py     pz     px    dxy    dyz    dz2    dxz  x2-y2    tot
    1  0.000  0.000  0.000  0.000  0.085  0.046  0.253  0.078  0.034  0.498
    2  0.000  0.000  0.000  0.000  0.085  0.046  0.253  0.078  0.034  0.498
tot    0.001  0.000  0.000  0.000  0.170  0.092  0.507  0.156  0.069  0.995

band     7 # energy  -18.65514441 # occ.  2.00000000

ion      s     py     pz     px    dxy    dyz    dz2    dxz  x2-y2    tot
    1  0.000  0.000  0.000  0.000  0.000  0.024  0.007  0.010  0.457  0.498
    2  0.000  0.000  0.000  0.000  0.000  0.024  0.007  0.010  0.457  0.498
tot    0.000  0.000  0.000  0.000  0.000  0.047  0.014  0.019  0.914  0.995

band     8 # energy  -18.59201628 # occ.  2.00000000

ion      s     py     pz     px    dxy    dyz    dz2    dxz  x2-y2    tot
    1  0.000  0.000  0.000  0.000  0.173  0.001  0.302  0.016  0.006  0.498
    2  0.000  0.000  0.000  0.000  0.173  0.001  0.302  0.016  0.006  0.498
tot    0.001  0.000  0.000  0.000  0.345  0.002  0.604  0.032  0.012  0.997

band     9 # energy  -18.46625471 # occ.  2.00000000

ion      s     py     pz     px    dxy    dyz    dz2    dxz  x2-y2    tot
    1  0.000  0.000  0.000  0.000  0.006  0.241  0.003  0.220  0.030  0.499
    2  0.000  0.000  0.000  0.000  0.006  0.241  0.003  0.220  0.030  0.499
tot    0.000  0.000  0.000  0.000  0.011  0.481  0.005  0.440  0.060  0.998

band    10 # energy  -18.44841339 # occ.  2.00000000

ion      s     py     pz     px    dxy    dyz    dz2    dxz  x2-y2    tot
    1  0.000  0.000  0.000  0.000  0.128  0.173  0.039  0.159  0.000  0.499
    2  0.000  0.000  0.000  0.000  0.128  0.173  0.039  0.159  0.000  0.499
tot    0.000  0.000  0.000  0.000  0.256  0.346  0.079  0.317  0.001  0.998

band    11 # energy   -3.67582450 # occ.  2.00000000

ion      s     py     pz     px    dxy    dyz    dz2    dxz  x2-y2    tot
    1  0.307  0.009  0.033  0.005  0.007  0.001  0.000  0.002  0.000  0.363
    2  0.307  0.009  0.033  0.005  0.007  0.001  0.000  0.002  0.000  0.363
tot    0.613  0.019  0.067  0.010  0.013  0.002  0.000  0.003  0.000  0.727

band    12 # energy   -2.57911840 # occ.  2.00000000

ion      s     py     pz     px    dxy    dyz    dz2    dxz  x2-y2    tot
    1  0.271  0.011  0.060  0.006  0.005  0.001  0.001  0.002  0.000  0.357
    2  0.271  0.011  0.060  0.006  0.005  0.001  0.001  0.002  0.000  0.357
tot    0.543  0.021  0.120  0.012  0.011  0.002  0.001  0.004  0.000  0.715

band    13 # energy    1.19459330 # occ.  2.00000000

ion      s     py     pz     px    dxy    dyz    dz2    dxz  x2-y2    tot
    1  0.000  0.084  0.064  0.090  0.000  0.000  0.005  0.000  0.000  0.244
    2  0.000  0.084  0.064  0.090  0.000  0.000  0.005  0.000  0.000  0.244
tot    0.000  0.168  0.129  0.179  0.000  0.001  0.011  0.000  0.000  0.488

band    14 # energy    3.03764523 # occ.  2.00000000

ion      s     py     pz     px    dxy    dyz    dz2    dxz  x2-y2    tot
    1  0.001  0.141  0.004  0.145  0.000  0.003  0.001  0.002  0.003  0.301
    2  0.001  0.141  0.004  0.145  0.000  0.003  0.001  0.002  0.003  0.301
tot    0.002  0.283  0.008  0.291  0.000  0.006  0.001  0.005  0.006  0.601

band    15 # energy    7.29639525 # occ.  0.00000000

ion      s     py     pz     px    dxy    dyz    dz2    dxz  x2-y2    tot
    1  0.066  0.003  0.067  0.007  0.035  0.000  0.029  0.000  0.000  0.207
    2  0.066  0.003  0.067  0.007  0.035  0.000  0.029  0.000  0.000  0.207
tot    0.131  0.005  0.133  0.014  0.071  0.000  0.059  0.001  0.000  0.414

band    16 # energy   10.37354630 # occ.  0.00000000

ion      s     py     pz     px    dxy    dyz    dz2    dxz  x2-y2    tot
    1  0.039  0.048  0.038  0.052  0.043  0.001  0.026  0.001  0.000  0.247
    2  0.039  0.048  0.038  0.052  0.043  0.001  0.026  0.001  0.000  0.247
tot    0.079  0.096  0.076  0.103  0.086  0.001  0.052  0.001  0.000  0.494

band    17 # energy   13.65820232 # occ.  0.00000000

ion      s     py     pz     px    dxy    dyz    dz2    dxz  x2-y2    tot
    1  0.011  0.073  0.026  0.102  0.003  0.002  0.000  0.052  0.027  0.296
    2  0.011  0.073  0.026  0.102  0.003  0.002  0.000  0.052  0.027  0.296
tot    0.021  0.147  0.053  0.205  0.005  0.003  0.001  0.103  0.054  0.592

band    18 # energy   13.76599621 # occ.  0.00000000

ion      s     py     pz     px    dxy    dyz    dz2    dxz  x2-y2    tot
    1  0.047  0.068  0.045  0.096  0.001  0.002  0.007  0.026  0.007  0.298
    2  0.047  0.068  0.045  0.096  0.001  0.002  0.007  0.026  0.007  0.298
tot    0.095  0.135  0.091  0.192  0.002  0.004  0.013  0.052  0.013  0.596


 k-point     5 :    0.40131579 0.34868421 0.75000000     weight = 0.01000000

band     1 # energy  -18.92509217 # occ.  2.00000000

ion      s     py     pz     px    dxy    dyz    dz2    dxz  x2-y2    tot
    1  0.000  0.000  0.000  0.000  0.137  0.175  0.028  0.156  0.000  0.497
    2  0.000  0.000  0.000  0.000  0.137  0.175  0.028  0.156  0.000  0.497
tot    0.000  0.000  0.000  0.000  0.274  0.349  0.056  0.313  0.001  0.993

band     2 # energy  -18.90525338 # occ.  2.00000000

ion      s     py     pz     px    dxy    dyz    dz2    dxz  x2-y2    tot
    1  0.000  0.000  0.000  0.000  0.012  0.247  0.004  0.217  0.018  0.497
    2  0.000  0.000  0.000  0.000  0.012  0.247  0.004  0.217  0.018  0.497
tot    0.000  0.000  0.000  0.001  0.024  0.493  0.008  0.433  0.035  0.994

band     3 # energy  -18.78988118 # occ.  2.00000000

ion      s     py     pz     px    dxy    dyz    dz2    dxz  x2-y2    tot
    1  0.001  0.000  0.000  0.000  0.270  0.002  0.174  0.045  0.004  0.496
    2  0.001  0.000  0.000  0.000  0.270  0.002  0.174  0.045  0.004  0.496
tot    0.001  0.000  0.000  0.000  0.539  0.005  0.349  0.090  0.008  0.993

band     4 # energy  -18.71692910 # occ.  2.00000000

ion      s     py     pz     px    dxy    dyz    dz2    dxz  x2-y2    tot
    1  0.001  0.000  0.000  0.000  0.181  0.055  0.155  0.098  0.007  0.497
    2  0.001  0.000  0.000  0.000  0.181  0.055  0.155  0.098  0.007  0.497
tot    0.002  0.000  0.000  0.000  0.361  0.110  0.310  0.197  0.014  0.994

band     5 # energy  -18.68040895 # occ.  2.00000000

ion      s     py     pz     px    dxy    dyz    dz2    dxz  x2-y2    tot
    1  0.000  0.000  0.000  0.000  0.004  0.034  0.039  0.000  0.420  0.497
    2  0.000  0.000  0.000  0.000  0.004  0.034  0.039  0.000  0.420  0.497
tot    0.000  0.000  0.000  0.000  0.008  0.067  0.079  0.000  0.840  0.995

band     6 # energy  -18.66033020 # occ.  2.00000000

ion      s     py     pz     px    dxy    dyz    dz2    dxz  x2-y2    tot
    1  0.000  0.000  0.000  0.000  0.083  0.040  0.240  0.079  0.055  0.498
    2  0.000  0.000  0.000  0.000  0.083  0.040  0.240  0.079  0.055  0.498
tot    0.001  0.000  0.000  0.000  0.166  0.079  0.480  0.159  0.110  0.995

band     7 # energy  -18.65549454 # occ.  2.00000000

ion      s     py     pz     px    dxy    dyz    dz2    dxz  x2-y2    tot
    1  0.000  0.000  0.000  0.000  0.000  0.027  0.013  0.008  0.450  0.498
    2  0.000  0.000  0.000  0.000  0.000  0.027  0.013  0.008  0.450  0.498
tot    0.000  0.000  0.000  0.000  0.000  0.053  0.026  0.016  0.900  0.995

band     8 # energy  -18.59332487 # occ.  2.00000000

ion      s     py     pz     px    dxy    dyz    dz2    dxz  x2-y2    tot
    1  0.000  0.000  0.000  0.000  0.169  0.000  0.297  0.020  0.011  0.498
    2  0.000  0.000  0.000  0.000  0.169  0.000  0.297  0.020  0.011  0.498
tot    0.001  0.000  0.000  0.000  0.338  0.001  0.595  0.041  0.022  0.997

band     9 # energy  -18.46562236 # occ.  2.00000000

ion      s     py     pz     px    dxy    dyz    dz2    dxz  x2-y2    tot
    1  0.000  0.000  0.000  0.000  0.010  0.241  0.004  0.214  0.029  0.499
    2  0.000  0.000  0.000  0.000  0.010  0.241  0.004  0.214  0.029  0.499
tot    0.000  0.000  0.000  0.000  0.019  0.483  0.009  0.429  0.058  0.998

band    10 # energy  -18.44846943 # occ.  2.00000000

ion      s     py     pz     px    dxy    dyz    dz2    dxz  x2-y2    tot
    1  0.000  0.000  0.000  0.000  0.128  0.175  0.039  0.156  0.000  0.499
    2  0.000  0.000  0.000  0.000  0.128  0.175  0.039  0.156  0.000  0.499
tot    0.000  0.000  0.000  0.000  0.256  0.350  0.078  0.312  0.001  0.998

band    11 # energy   -3.66384359 # occ.  2.00000000

ion      s     py     pz     px    dxy    dyz    dz2    dxz  x2-y2    tot
    1  0.306  0.010  0.033  0.004  0.007  0.001  0.000  0.002  0.000  0.363