    2    2    1    1
  0.2044294E+02  0.3866899E-09  0.3866899E-09  0.3866899E-09  0.5000000E-15
   1.0000000000000000E-004
  CAR 
 unknown system                          
     28    129     18
 
  0.0000000E+00  0.0000000E+00  0.0000000E+00  0.1953125E-02
      1        -22.398573   1.000000
      2        -22.398573   1.000000
      3        -22.398566   1.000000
      4        -22.353071   1.000000
      5        -22.353071   1.000000
      6        -22.082365   1.000000
      7        -22.082364   1.000000
      8        -22.082356   1.000000
      9        -22.054410   1.000000
     10        -22.054410   1.000000
     11         -9.232966   1.000000
     12          5.710701   1.000000
     13          5.710753   1.000000
     14          5.710759   1.000000
     15          7.696960   0.000000
     16          8.994049   0.000000
     17          8.994051   0.000000
     18          8.994052   0.000000
 
  0.1250000E+00  0.0000000E+00  0.0000000E+00  0.1562500E-01
      1        -22.409518   1.000000
      2        -22.409513   1.000000
      3        -22.395433   1.000000
      4        -22.337850   1.000000
      5        -22.337850   1.000000
      6        -22.094416   1.000000
      7        -22.094411   1.000000
      8        -22.085961   1.000000
      9        -22.044915   1.000000
     10        -22.044913   1.000000
     11         -9.001271   1.000000
     12          3.396945   1.000000
     13          5.310903   1.000000
     14          5.310941   1.000000
     15          8.047627   0.000000
     16          9.527915   0.000000
     17          9.527922   0.000000
     18         10.410252   0.000000
 
  0.2500000E+00  0.0000000E+00  0.0000000E+00  0.1562500E-01
      1        -22.422603   1.000000
      2        -22.422598   1.000000
      3        -22.387856   1.000000
      4        -22.315211   1.000000
      5        -22.315210   1.000000
      6        -22.110031   1.000000
      7        -22.110028   1.000000
      8        -22.094534   1.000000
      9        -22.033664   1.000000
     10        -22.033660   1.000000
     11         -8.324681   1.000000
     12          0.462626   1.000000
     13          4.647124   1.000000
     14          4.647151   1.000000
     15          7.486720   0.000000
     16         10.239326   0.000000
     17         10.239349   0.000000
     18         12.993276   0.000000
 
  0.3750000E+00  0.0000000E+00  0.0000000E+00  0.1562500E-01
      1        -22.428725   1.000000
      2        -22.428721   1.000000
      3        -22.380494   1.000000
      4        -22.301927   1.000000
      5        -22.301925   1.000000
      6        -22.117222   1.000000
      7        -22.117221   1.000000
      8        -22.103508   1.000000
      9        -22.028050   1.000000
     10        -22.028045   1.000000
     11         -7.314606   1.000000
     12         -1.985901   1.000000
     13          4.173050   1.000000
     14          4.173072   1.000000
     15          7.069657   0.000000
     16         10.314152   0.000000
     17         10.314174   0.000000
     18         14.260378   0.000000
 
  0.5000000E+00  0.0000000E+00  0.0000000E+00  0.7812500E-02
      1        -22.430253   1.000000
      2        -22.430249   1.000000
      3        -22.377287   1.000000
      4        -22.298466   1.000000
      5        -22.298464   1.000000
      6        -22.118320   1.000000
      7        -22.118319   1.000000
      8        -22.107271   1.000000
      9        -22.026853   1.000000
     10        -22.026848   1.000000
     11         -6.613532   1.000000
     12         -3.175999   1.000000
     13          4.007658   1.000000
     14          4.007678   1.000000
     15          6.926629   0.000000
     16         10.233591   0.000000
     17         10.233609   0.000000
     18         13.690283   0.000000
 
  0.1250000E+00  0.1250000E+00  0.0000000E+00  0.1171875E-01
      1        -22.409573   1.000000
      2        -22.405786   1.000000
      3        -22.405782   1.000000
      4        -22.341159   1.000000
      5        -22.321192   1.000000
      6        -22.124745   1.000000
      7        -22.070700   1.000000
      8        -22.070695   1.000000
      9        -22.065262   1.000000
     10        -22.037769   1.000000
     11         -8.923018   1.000000
     12          3.560640   1.000000
     13          4.651545   1.000000
     14          4.651576   1.000000
     15          8.222495   0.000000
     16          9.564778   0.000000
     17         10.427378   0.000000
     18         10.427542   0.000000
 
  0.2500000E+00  0.1250000E+00  0.0000000E+00  0.4687500E-01
      1        -22.426839   1.000000
      2        -22.416460   1.000000
      3        -22.395479   1.000000
      4        -22.322608   1.000000
      5        -22.294690   1.000000
      6        -22.151226   1.000000
      7        -22.089085   1.000000
      8        -22.072386   1.000000
      9        -22.048952   1.000000
     10        -22.027691   1.000000
     11         -8.389931   1.000000
     12          1.245466   1.000000
     13          3.961645   1.000000
     14          3.988532   1.000000
     15          8.343519   0.000000
     16          9.616132   0.000000
     17         11.398551   0.000000
     18         11.609141   0.000000
 
  0.3750000E+00  0.1250000E+00  0.0000000E+00  0.4687500E-01
      1        -22.440820   1.000000
      2        -22.426284   1.000000
      3        -22.376955   1.000000
      4        -22.302854   1.000000
      5        -22.279053   1.000000
      6        -22.161454   1.000000
      7        -22.108848   1.000000
      8        -22.091282   1.000000
      9        -22.034078   1.000000
     10        -22.015145   1.000000
     11         -7.464531   1.000000
     12         -1.242448   1.000000
     13          3.206391   1.000000
     14          3.574316   1.000000
     15          8.256140   0.000000
     16         10.007940   0.000000
     17         11.497141   0.000000
     18         12.340810   0.000000
 
  0.5000000E+00  0.1250000E+00  0.0000000E+00  0.4687500E-01
      1        -22.446410   1.000000
      2        -22.432983   1.000000
      3        -22.360960   1.000000
      4        -22.287820   1.000000
      5        -22.282738   1.000000
      6        -22.149703   1.000000
      7        -22.126437   1.000000
      8        -22.110790   1.000000
      9        -22.023351   1.000000
     10        -22.009865   1.000000
     11         -6.505731   1.000000
     12         -2.956463   1.000000
     13          2.643405   1.000000
     14          3.572597   1.000000
     15          8.082029   0.000000
     16         10.063158   0.000000
     17         11.109943   0.000000
     18         14.237831   0.000000
 
 -0.3750000E+00  0.1250000E+00  0.0000000E+00  0.4687500E-01
      1        -22.442847   1.000000
      2        -22.436711   1.000000
      3        -22.358295   1.000000
      4        -22.297192   1.000000
      5        -22.279831   1.000000
      6        -22.139914   1.000000
      7        -22.125869   1.000000
      8        -22.118482   1.000000
      9        -22.017187   1.000000
     10        -22.015619   1.000000
     11         -6.774052   1.000000
     12         -2.529471   1.000000
     13          2.441770   1.000000
     14          3.943803   1.000000
     15          8.166984   0.000000
     16         10.275031   0.000000
     17         10.788088   0.000000
     18         14.567773   0.000000
 
 -0.2500000E+00  0.1250000E+00  0.0000000E+00  0.4687500E-01
      1        -22.434902   1.000000
      2        -22.431130   1.000000
      3        -22.372420   1.000000
      4        -22.312118   1.000000
      5        -22.287816   1.000000
      6        -22.138937   1.000000
      7        -22.121079   1.000000
      8        -22.090224   1.000000
      9        -22.032546   1.000000
     10        -22.018230   1.000000
     11         -7.812225   1.000000
     12         -0.453527   1.000000
     13          2.686764   1.000000
     14          4.595871   1.000000
     15          8.494186   0.000000
     16         10.409667   0.000000
     17         10.571637   0.000000
     18         12.742206   0.000000
 
 -0.1250000E+00  0.1250000E+00  0.0000000E+00  0.2343750E-01
      1        -22.424736   1.000000
      2        -22.414476   1.000000
      3        -22.390849   1.000000
      4        -22.328295   1.000000
      5        -22.312518   1.000000
      6        -22.120455   1.000000
      7        -22.108855   1.000000
      8        -22.063008   1.000000
      9        -22.058229   1.000000
     10        -22.027786   1.000000
     11         -8.619165   1.000000
     12          1.917831   1.000000
     13          3.613891   1.000000
     14          5.258977   1.000000
     15          8.748173   0.000000
     16          9.674028   0.000000
     17          9.851162   0.000000
     18         11.901327   0.000000
 
  0.2500000E+00  0.2500000E+00  0.0000000E+00  0.1171875E-01
      1        -22.421935   1.000000
      2        -22.421931   1.000000
      3        -22.409280   1.000000
      4        -22.307604   1.000000
      5        -22.260669   1.000000
      6        -22.194040   1.000000
      7        -22.096510   1.000000
      8        -22.043893   1.000000
      9        -22.043887   1.000000
     10        -22.040561   1.000000
     11         -8.000667   1.000000
     12          0.728208   1.000000
     13          3.221256   1.000000
     14          3.221283   1.000000
     15          7.179262   0.000000
     16          9.416554   0.000000
     17         12.931914   0.000000
     18         12.959114   0.000000
 
  0.3750000E+00  0.2500000E+00  0.0000000E+00  0.4687500E-01
      1        -22.441510   1.000000
      2        -22.430545   1.000000
      3        -22.384356   1.000000
      4        -22.284299   1.000000
      5        -22.234834   1.000000
      6        -22.220290   1.000000
      7        -22.120238   1.000000
      8        -22.072935   1.000000
      9        -22.028762   1.000000
     10        -22.015367   1.000000
     11         -7.189357   1.000000
     12         -0.994263   1.000000
     13          2.258242   1.000000
     14          2.789648   1.000000
     15          7.482026   0.000000
     16          9.253526   0.000000
     17         12.914363   0.000000
     18         13.603649   0.000000
 
  0.5000000E+00  0.2500000E+00  0.0000000E+00  0.4687500E-01
      1        -22.458213   1.000000
      2        -22.438007   1.000000
      3        -22.352409   1.000000
      4        -22.261742   1.000000
      5        -22.237418   1.000000
      6        -22.213477   1.000000
      7        -22.146499   1.000000
      8        -22.107577   1.000000
      9        -22.016379   1.000000
     10        -21.996454   1.000000
     11         -6.142442   1.000000
     12         -2.677072   1.000000
     13          1.212138   1.000000
     14          2.772962   1.000000
     15          7.694863   0.000000
     16         11.110538   0.000000
     17         12.365424   0.000000
     18         13.207583   0.000000
 
 -0.3750000E+00  0.2500000E+00  0.0000000E+00  0.4687500E-01
      1        -22.462313   1.000000
      2        -22.442703   1.000000
      3        -22.335706   1.000000
      4        -22.259942   1.000000
      5        -22.246495   1.000000
      6        -22.185852   1.000000
      7        -22.167876   1.000000
      8        -22.124278   1.000000
      9        -22.009432   1.000000
     10        -21.992628   1.000000
     11         -5.923399   1.000000
     12         -2.961320   1.000000
     13          0.674332   1.000000
     14          3.170293   1.000000
     15          8.013465   0.000000
     16         12.095252   0.000000
     17         12.611655   0.000000
     18         14.794232   0.000000
 
 -0.2500000E+00  0.2500000E+00  0.0000000E+00  0.2343750E-01
      1        -22.451582   1.000000
      2        -22.442458   1.000000
      3        -22.343015   1.000000
      4        -22.295047   1.000000
      5        -22.257188   1.000000
      6        -22.164380   1.000000
      7        -22.142862   1.000000
      8        -22.118752   1.000000
      9        -22.009751   1.000000
     10        -22.007097   1.000000
     11         -6.909891   1.000000
     12         -1.605287   1.000000
     13          0.998367   1.000000
     14          3.883192   1.000000
     15          8.583701   0.000000
     16         11.653850   0.000000
     17         12.030736   0.000000
     18         12.332990   0.000000
 
  0.3750000E+00  0.3750000E+00  0.0000000E+00  0.1171875E-01
      1        -22.436400   1.000000
      2        -22.436396   1.000000
      3        -22.384422   1.000000
      4        -22.268573   1.000000
      5        -22.257780   1.000000
      6        -22.191905   1.000000
      7        -22.143639   1.000000
      8        -22.071676   1.000000
      9        -22.018861   1.000000
     10        -22.018856   1.000000
     11         -6.492892   1.000000
     12         -2.001236   1.000000
     13          2.269631   1.000000
     14          2.269652   1.000000
     15          6.661571   0.000000
     16          7.805908   0.000000
     17         15.575460   0.000000
     18         15.701516   0.000000
 
  0.5000000E+00  0.3750000E+00  0.0000000E+00  0.4687500E-01
      1        -22.451445   1.000000
      2        -22.441042   1.000000
      3        -22.350555   1.000000
      4        -22.288884   1.000000
      5        -22.230659   1.000000
      6        -22.172052   1.000000
      7        -22.170183   1.000000
      8        -22.108245   1.000000
      9        -22.010865   1.000000
     10        -22.001282   1.000000
     11         -5.461030   1.000000
     12         -3.301421   1.000000
     13          1.342389   1.000000
     14          2.161831   1.000000
     15          7.031381   0.000000
     16          8.261100   0.000000
     17         15.481440   0.000000
     18         15.813743   0.000000
 
 -0.3750000E+00  0.3750000E+00  0.0000000E+00  0.2343750E-01
      1        -22.465193   1.000000
      2        -22.443790   1.000000
      3        -22.331773   1.000000
      4        -22.254386   1.000000
      5        -22.215843   1.000000
      6        -22.199979   1.000000
      7        -22.191692   1.000000
      8        -22.126944   1.000000
      9        -22.007328   1.000000
     10        -21.987853   1.000000
     11         -4.991401   1.000000
     12         -3.745372   1.000000
     13          0.371428   1.000000
     14          2.487073   1.000000
     15          7.363597   0.000000
     16         11.044328   0.000000
     17         14.723662   0.000000
     18         14.764665   0.000000
 
  0.5000000E+00  0.5000000E+00  0.0000000E+00  0.5859375E-02
      1        -22.442050   1.000000
      2        -22.442046   1.000000
      3        -22.335580   1.000000
      4        -22.335580   1.000000
      5        -22.200256   1.000000
      6        -22.200256   1.000000
      7        -22.125344   1.000000
      8        -22.125342   1.000000
      9        -22.008846   1.000000
     10        -22.008840   1.000000
     11         -4.458245   1.000000
     12         -4.458237   1.000000
     13          1.942482   1.000000
     14          1.942504   1.000000
     15          6.846983   0.000000
     16          6.847007   0.000000
     17         17.675698   0.000000
     18         17.883223   0.000000
 
  0.3750000E+00  0.2500000E+00  0.1250000E+00  0.4687500E-01
      1        -22.436609   1.000000
      2        -22.432354   1.000000
      3        -22.377996   1.000000
      4        -22.305334   1.000000
      5        -22.266563   1.000000
      6        -22.179579   1.000000
      7        -22.105946   1.000000
      8        -22.084651   1.000000
      9        -22.031219   1.000000
     10        -22.017846   1.000000
     11         -7.720014   1.000000
     12         -0.158536   1.000000
     13          2.246566   1.000000
     14          3.777666   1.000000
     15          8.765604   0.000000
     16          9.868067   0.000000
     17         11.120185   0.000000
     18         12.578786   0.000000
 
  0.5000000E+00  0.2500000E+00  0.1250000E+00  0.9375000E-01
      1        -22.451512   1.000000
      2        -22.441208   1.000000
      3        -22.350342   1.000000
      4        -22.285877   1.000000
      5        -22.250281   1.000000
      6        -22.189916   1.000000
      7        -22.127118   1.000000
      8        -22.116098   1.000000
      9        -22.014204   1.000000
     10        -22.004490   1.000000
     11         -6.711986   1.000000
     12         -2.003059   1.000000
     13          1.452096   1.000000
     14          3.163679   1.000000
     15          9.158638   0.000000
     16         10.031248   0.000000
     17         11.659916   0.000000
     18         13.216983   0.000000
 
 -0.3750000E+00  0.2500000E+00  0.1250000E+00  0.4687500E-01
      1        -22.458352   1.000000
      2        -22.442835   1.000000
      3        -22.337807   1.000000
      4        -22.271559   1.000000
      5        -22.252628   1.000000
      6        -22.182788   1.000000
      7        -22.149999   1.000000
      8        -22.124344   1.000000
      9        -22.010919   1.000000
     10        -21.996627   1.000000
     11         -5.989948   1.000000
     12         -3.080504   1.000000
     13          1.263277   1.000000
     14          2.884657   1.000000
     15          9.185617   0.000000
     16          9.775608   0.000000
     17         12.924805   0.000000
     18         14.375391   0.000000
 
  0.5000000E+00  0.3750000E+00  0.1250000E+00  0.4687500E-01
      1        -22.447482   1.000000
      2        -22.447006   1.000000
      3        -22.354808   1.000000
      4        -22.259907   1.000000
      5        -22.248006   1.000000
      6        -22.206402   1.000000
      7        -22.146259   1.000000
      8        -22.103286   1.000000
      9        -22.007580   1.000000
     10        -22.007009   1.000000
     11         -6.271806   1.000000
     12         -2.266714   1.000000
     13          1.433802   1.000000
     14          2.164592   1.000000
     15          8.197815   0.000000
     16          9.018108   0.000000
     17         12.604806   0.000000
     18         15.478176   0.000000
 
 -0.3750000E+00  0.3750000E+00  0.1250000E+00  0.9375000E-01
      1        -22.462706   1.000000
      2        -22.450193   1.000000
      3        -22.321345   1.000000
      4        -22.249235   1.000000
      5        -22.235943   1.000000
      6        -22.202484   1.000000
      7        -22.175963   1.000000
      8        -22.134577   1.000000
      9        -22.002328   1.000000
     10        -21.990493   1.000000
     11         -5.284957   1.000000
     12         -3.407108   1.000000
     13          0.636729   1.000000
     14          1.928273   1.000000
     15          8.717104   0.000000
     16         11.113825   0.000000
     17         11.957205   0.000000
     18         14.430343   0.000000
 
 -0.2500000E+00  0.3750000E+00  0.1250000E+00  0.4687500E-01
      1        -22.463258   1.000000
      2        -22.449778   1.000000
      3        -22.321991   1.000000
      4        -22.255268   1.000000
      5        -22.218983   1.000000
      6        -22.218207   1.000000
      7        -22.171704   1.000000
      8        -22.133659   1.000000
      9        -22.002777   1.000000
     10        -21.990990   1.000000
     11         -5.689290   1.000000
     12         -2.967900   1.000000
     13          0.446575   1.000000
     14          2.381782   1.000000
     15          9.239543   0.000000
     16         11.321157   0.000000
     17         11.834846   0.000000
     18         14.811073   0.000000
 
 -0.3750000E+00  0.5000000E+00  0.1250000E+00  0.2343750E-01
      1        -22.452598   1.000000
      2        -22.452594   1.000000
      3        -22.309819   1.000000
      4        -22.309818   1.000000
      5        -22.202851   1.000000
      6        -22.202851   1.000000
      7        -22.147375   1.000000
      8        -22.147373   1.000000
      9        -21.999232   1.000000
     10        -21.999227   1.000000
     11         -4.383537   1.000000
     12         -4.383530   1.000000
     13          1.367348   1.000000
     14          1.367359   1.000000
     15          8.257904   0.000000
     16          8.257914   0.000000
     17         14.998000   0.000000
     18         15.508821   0.000000
 
 -0.2500000E+00  0.5000000E+00  0.2500000E+00  0.1171875E-01
      1        -22.460922   1.000000
      2        -22.460918   1.000000
      3        -22.278665   1.000000
      4        -22.278665   1.000000
      5        -22.212020   1.000000
      6        -22.212019   1.000000
      7        -22.168952   1.000000
      8        -22.168950   1.000000
      9        -21.991573   1.000000
     10        -21.991568   1.000000
     11         -4.303211   1.000000
     12         -4.303206   1.000000
     13          0.905194   1.000000
     14          0.905201   1.000000
     15         11.213594   0.000000
     16         11.213611   0.000000
     17         11.402444   0.000000
     18         11.402452   0.000000
 
  0.0000000E+00  0.0000000E+00  0.0000000E+00  0.0000000E+00
      1        -22.398573   1.000000
      2        -22.398573   1.000000
      3        -22.398566   1.000000
      4        -22.353071   1.000000
      5        -22.353071   1.000000
      6        -22.082365   1.000000
      7        -22.082364   1.000000
      8        -22.082356   1.000000
      9        -22.054410   1.000000
     10        -22.054410   1.000000
     11         -9.232966   1.000000
     12          5.710701   1.000000
     13          5.710754   1.000000
     14          5.710761   1.000000
     15          7.696959   0.000000
     16          8.994048   0.000000
     17          8.994051   0.000000
     18          8.994205   0.000000
 
  0.2380952E-01  0.0000000E+00  0.2380952E-01  0.0000000E+00
      1        -22.399361   1.000000
      2        -22.398858   1.000000
      3        -22.398855   1.000000
      4        -22.352633   1.000000
      5        -22.351519   1.000000
      6        -22.084995   1.000000
      7        -22.081913   1.000000
      8        -22.081907   1.000000
      9        -22.054807   1.000000
     10        -22.052721   1.000000
     11         -9.221713   1.000000
     12          5.559144   1.000000
     13          5.654785   1.000000
     14          5.654825   1.000000
     15          7.843698   0.000000
     16          8.955961   0.000000
     17          9.063749   0.000000
     18          9.065143   0.000000
 
  0.4761905E-01  0.0000000E+00  0.4761905E-01  0.0000000E+00
      1        -22.401432   1.000000
      2        -22.399752   1.000000
      3        -22.399748   1.000000
      4        -22.351322   1.000000
      5        -22.347329   1.000000
      6        -22.091612   1.000000
      7        -22.080598   1.000000
      8        -22.080593   1.000000
      9        -22.056002   1.000000
     10        -22.049078   1.000000
     11         -9.187927   1.000000
     12          5.192808   1.000000
     13          5.500131   1.000000
     14          5.500171   1.000000
     15          8.193570   0.000000
     16          8.848299   0.000000
     17          9.259603   0.000000
     18          9.260462   0.000000
 
  0.7142857E-01  0.0000000E+00  0.7142857E-01  0.0000000E+00
      1        -22.404023   1.000000
      2        -22.400989   1.000000
      3        -22.400985   1.000000
      4        -22.349145   1.000000
      5        -22.340843   1.000000
      6        -22.100430   1.000000
      7        -22.078396   1.000000
      8        -22.078390   1.000000
      9        -22.057970   1.000000
     10        -22.044937   1.000000
     11         -9.131625   1.000000
     12          4.728160   1.000000
     13          5.275805   1.000000
     14          5.275847   1.000000
     15          8.623861   0.000000
     16          8.687231   0.000000
     17          9.552315   0.000000
     18          9.552317   0.000000
 
  0.9523810E-01  0.0000000E+00  0.9523810E-01  0.0000000E+00
      1        -22.406658   1.000000
      2        -22.402835   1.000000
      3        -22.402831   1.000000
      4        -22.346116   1.000000
      5        -22.332806   1.000000
      6        -22.110623   1.000000
      7        -22.075407   1.000000
      8        -22.075401   1.000000
      9        -22.060736   1.000000
     10        -22.041247   1.000000
     11         -9.052908   1.000000
     12          4.220938   1.000000
     13          5.010249   1.000000
     14          5.010285   1.000000
     15          8.491531   0.000000
     16          9.065887   0.000000
     17          9.913048   0.000000
     18          9.913078   0.000000
 
  0.1190476E+00  0.0000000E+00  0.1190476E+00  0.0000000E+00
      1        -22.409056   1.000000
      2        -22.405151   1.000000
      3        -22.405147   1.000000
      4        -22.342253   1.000000
      5        -22.323635   1.000000
      6        -22.121818   1.000000
      7        -22.071720   1.000000
      8        -22.071715   1.000000
      9        -22.064264   1.000000
     10        -22.038351   1.000000
     11         -8.951789   1.000000
     12          3.694076   1.000000
     13          4.724416   1.000000
     14          4.724450   1.000000
     15          8.277369   0.000000
     16          9.473494   0.000000
     17         10.320288   0.000000
     18         10.329659   0.000000
 
  0.1428571E+00  0.0000000E+00  0.1428571E+00  0.0000000E+00
      1        -22.410888   1.000000
      2        -22.407842   1.000000
      3        -22.407839   1.000000
      4        -22.337718   1.000000
      5        -22.313596   1.000000
      6        -22.133800   1.000000
      7        -22.068668   1.000000
      8        -22.067454   1.000000
      9        -22.067449   1.000000
     10        -22.036426   1.000000
     11         -8.828361   1.000000
     12          3.157861   1.000000
     13          4.432224   1.000000
     14          4.432258   1.000000
     15          8.057213   0.000000
     16          9.797487   0.000000
     17         10.759529   0.000000
     18         10.759545   0.000000
 
  0.1666667E+00  0.0000000E+00  0.1666667E+00  0.0000000E+00
      1        -22.412019   1.000000
      2        -22.410779   1.000000
      3        -22.410775   1.000000
      4        -22.332270   1.000000
      5        -22.302789   1.000000
      6        -22.146428   1.000000
      7        -22.073671   1.000000
      8        -22.062687   1.000000
      9        -22.062682   1.000000
     10        -22.035489   1.000000
     11         -8.682772   1.000000
     12          2.617476   1.000000
     13          4.142704   1.000000
     14          4.142736   1.000000
     15          7.840022   0.000000
     16          9.981023   0.000000
     17         11.221209   0.000000
     18         11.226915   0.000000
 
  0.1904762E+00  0.0000000E+00  0.1904762E+00  0.0000000E+00
      1        -22.413889   1.000000
      2        -22.413885   1.000000
      3        -22.412263   1.000000
      4        -22.326073   1.000000
      5        -22.291184   1.000000
      6        -22.159539   1.000000
      7        -22.079379   1.000000
      8        -22.057470   1.000000
      9        -22.057464   1.000000
     10        -22.035547   1.000000
     11         -8.515118   1.000000
     12          2.075899   1.000000
     13          3.861821   1.000000
     14          3.861853   1.000000
     15          7.632103   0.000000
     16          9.986031   0.000000
     17         11.701382   0.000000
     18         11.702516   0.000000
 
  0.2142857E+00  0.0000000E+00  0.2142857E+00  0.0000000E+00
      1        -22.417185   1.000000
      2        -22.417181   1.000000
      3        -22.411768   1.000000
      4        -22.319178   1.000000
      5        -22.279288   1.000000
      6        -22.173138   1.000000
      7        -22.085758   1.000000
      8        -22.052121   1.000000
      9        -22.052116   1.000000
     10        -22.036770   1.000000
     11         -8.325567   1.000000
     12          1.535055   1.000000
     13          3.593644   1.000000
     14          3.593675   1.000000
     15          7.437933   0.000000
     16          9.829684   0.000000
     17         12.197387   0.000000
     18         12.209449   0.000000
 
  0.2380952E+00  0.0000000E+00  0.2380952E+00  0.0000000E+00
      1        -22.420313   1.000000
      2        -22.420309   1.000000
      3        -22.410319   1.000000
      4        -22.311615   1.000000
      5        -22.266960   1.000000
      6        -22.186992   1.000000
      7        -22.092771   1.000000
      8        -22.046629   1.000000
      9        -22.046623   1.000000
     10        -22.039029   1.000000
     11         -8.114346   1.000000
     12          0.996365   1.000000
     13          3.341042   1.000000
     14          3.341074   1.000000
     15          7.260730   0.000000
     16          9.568785   0.000000
     17         12.684160   0.000000
     18         12.689025   0.000000
 
  0.2619048E+00  0.0000000E+00  0.2619048E+00  0.0000000E+00
      1        -22.423539   1.000000
      2        -22.423535   1.000000
      3        -22.408013   1.000000
      4        -22.303446   1.000000
      5        -22.254303   1.000000
      6        -22.201135   1.000000
      7        -22.100397   1.000000
      8        -22.042356   1.000000
      9        -22.041174   1.000000
     10        -22.041169   1.000000
     11         -7.881651   1.000000
     12          0.461039   1.000000
     13          3.106095   1.000000
     14          3.106125   1.000000
     15          7.102867   0.000000