       N       E                     dE             d eps       ncg     rms          ort
SDA:   1     0.688614409838E+02    0.68861E+02    0.00000E+00  2322   0.106E+03 0.000E+00
CGA:   2     0.277224451458E+02   -0.41139E+02   -0.43314E+02  2322   0.585E+02-0.157E+02
CGA:   3     0.168814592465E+02   -0.10841E+02   -0.20255E+02  2322   0.102E+03-0.328E+02
CGA:   4     0.491443840179E+01   -0.11967E+02   -0.12956E+02  2322   0.236E+02-0.171E+01
CGA:   5    -0.358908844129E+01   -0.85035E+01   -0.14122E+02  2322   0.297E+02-0.172E+02
CGA:   6    -0.815203395467E+01   -0.45629E+01   -0.46641E+01  2322   0.663E+01-0.872E-01
CGA:   7    -0.998083919483E+01   -0.18288E+01   -0.18343E+01  2322   0.141E+01-0.850E-01
CGA:   8    -0.103774395051E+02   -0.39660E+00   -0.39658E+00  2322   0.394E+00 0.141E-02
CGA:   9    -0.104903563875E+02   -0.11292E+00   -0.11274E+00  2322   0.156E+00 0.235E-02
CGA:  10    -0.105399891217E+02   -0.49633E-01   -0.49714E-01  2322   0.450E-01-0.115E-02
CGA:  11    -0.105568944247E+02   -0.16905E-01   -0.17039E-01  2322   0.134E-01-0.100E-02
CGA:  12    -0.105613238443E+02   -0.44294E-02   -0.44629E-02  2322   0.461E-02-0.367E-03
CGA:  13    -0.105625342269E+02   -0.12104E-02   -0.12120E-02  2322   0.103E-02-0.963E-04
CGA:  14    -0.105628691160E+02   -0.33489E-03   -0.33650E-03  2322   0.208E-03-0.200E-04
CGA:  15    -0.105629377379E+02   -0.68622E-04   -0.68265E-04  2322   0.647E-04 0.473E-05
CGA:  16    -0.105629547414E+02   -0.17004E-04   -0.17051E-04  2322   0.167E-04 0.928E-05
CGA:  17    -0.105629590789E+02   -0.43374E-05   -0.45093E-05  2322   0.515E-05 0.653E-05
CGA:  18    -0.105629599495E+02   -0.87061E-06   -0.12195E-05  2322   0.221E-05 0.383E-05
   1 F= -.10562960E+02 E0= -.10562960E+02  d E =-.769549E-11
