 vasp.6.3.2 27Jun22 (build Dec  9 2025 07:45:44) complex                         
 executed on              LinuxNV date 2026.01.19  20:20:47
 running on    8 total cores
 distrk:  each k-point on    1 cores,    8 groups
 distr:  one band on NCORE=   1 cores,    1 groups


--------------------------------------------------------------------------------------------------------


 INCAR:
   NCORE = 1
   KPAR = 8
   NSIM = 4
   LPLANE = .FALSE.
   ISTART = 1            (Read existing wavefunction, if there)
   ISPIN = 1            (Non-Spin polarised DFT)
   LREAL = .FALSE.       (Projection operators: automatic)
   ENCUT = 450          (Cut-off energy for plane wave basis set, in eV)
   LWAVE = .TRUE.        (Write WAVECAR or not)
   LCHARG = .TRUE.        (Write CHGCAR or not)
   ADDGRID = .TRUE.        (Increase grid, helps GGA convergence)
   ISMEAR = 0            (gaussian smearing method)
   SIGMA = 0.05         (please check the width of the smearing)
   LORBIT = 11           (PAW radii for projected DOS)
   NEDOS = 1000         (DOSCAR points)
   NELM = 60           (Max electronic SCF steps)
   EDIFF = 1E-06        (SCF energy convergence, in eV)
   LHFCALC = .TRUE.       (Activate HF)
   AEXX = 0.25        (25% HF exact exchange, adjusted this value to reproduce experimental band gap)
   HFSCREEN = 0.2         (Switch to screened exchange, e.g. HSE06)
   ALGO = ALL         (Electronic Minimisation Algorithm, ALGO\=58)
   TIME = 0.4         (Timestep for IALGO5X)
   PRECFOCK = N           (HF FFT grid)

 POTCAR:    PAW_PBE Ge_d 03Jul2007                
 -----------------------------------------------------------------------------
|                                                                             |
|           W    W    AA    RRRRR   N    N  II  N    N   GGGG   !!!           |
|           W    W   A  A   R    R  NN   N  II  NN   N  G    G  !!!           |
|           W    W  A    A  R    R  N N  N  II  N N  N  G       !!!           |
|           W WW W  AAAAAA  RRRRR   N  N N  II  N  N N  G  GGG   !            |
|           WW  WW  A    A  R   R   N   NN  II  N   NN  G    G                |
|           W    W  A    A  R    R  N    N  II  N    N   GGGG   !!!           |
|                                                                             |
|     For optimal performance we recommend to set                             |
|       NCORE = 2 up to number-of-cores-per-socket                            |
|     NCORE specifies how many cores store one orbital (NPAR=cpu/NCORE).      |
|     This setting can greatly improve the performance of VASP for DFT.       |
|     The default, NCORE=1 might be grossly inefficient on modern             |
|     multi-core architectures or massively parallel machines. Do your        |
|     own testing! More info at https://www.vasp.at/wiki/index.php/NCORE      |
|     Unfortunately you need to use the default for GW and RPA                |
|     calculations (for HF NCORE is supported but not extensively tested      |
|     yet).                                                                   |
|                                                                             |
 -----------------------------------------------------------------------------

 POTCAR:    PAW_PBE Ge_d 03Jul2007                
   VRHFIN =Ge: 3d4s4p                                                                               
   LEXCH  = PE                                                                                      
   EATOM  =  2596.2402 eV,  190.8183 Ry                                                             
                                                                                                    
   TITEL  = PAW_PBE Ge_d 03Jul2007                                                                  
   LULTRA =        F    use ultrasoft PP ?                                                          
   IUNSCR =        1    unscreen: 0-lin 1-nonlin 2-no                                               
   RPACOR =    2.000    partial core radius                                                         
   POMASS =   72.610; ZVAL   =   14.000    mass and valenz                                          
   RCORE  =    2.300    outmost cutoff radius                                                       
   RWIGS  =    2.300; RWIGS  =    1.217    wigner-seitz radius (au A)                               
   ENMAX  =  310.294; ENMIN  =  232.720 eV                                                          
   ICORE  =        3    local potential                                                             
   LCOR   =        T    correct aug charges                                                         
   LPAW   =        T    paw PP                                                                      
   EAUG   =  531.356                                                                                
   DEXC   =    0.000                                                                                
   RMAX   =    2.342    core radius for proj-oper                                                   
   RAUG   =    1.300    factor for augmentation sphere                                              
   RDEP   =    2.318    radius for radial grids                                                     
   RDEPT  =    1.783    core radius for aug-charge                                                  
                                                                                                    
   Atomic configuration                                                                             
    9 entries                                                                                       
     n  l   j            E        occ.                                                              
     1  0  0.50    -10959.8463   2.0000                                                             
     2  0  0.50     -1371.6056   2.0000                                                             
     2  1  1.50     -1198.4791   6.0000                                                             
     3  0  0.50      -168.4733   2.0000                                                             
     3  1  1.50      -115.6019   6.0000                                                             
     3  2  2.50       -29.3106  10.0000                                                             
     4  0  0.50       -11.7309   2.0000                                                             
     4  1  0.50        -3.8952   2.0000                                                             
     4  3  2.50        -4.0817   0.0000                                                             
   Description                                                                                      
     l       E           TYP  RCUT    TYP  RCUT                                                     
     2    -29.3105938     23  2.200                                                                 
     2    -13.6058260     23  2.200                                                                 
     0    -11.7309493     23  2.300                                                                 
     0     -7.4578696     23  2.300                                                                 
     1     -3.8952261     23  2.300                                                                 
     1      6.1178114     23  2.300                                                                 
     3     -1.3605826     23  2.300                                                                 
  local pseudopotential read in
  partial core-charges read in
  partial kinetic energy density read in
  atomic valenz-charges read in
  non local Contribution for L=            2  read in
    real space projection operators read in
  non local Contribution for L=            2  read in
    real space projection operators read in
  non local Contribution for L=            0  read in
    real space projection operators read in
  non local Contribution for L=            0  read in
    real space projection operators read in
  non local Contribution for L=            1  read in
    real space projection operators read in
  non local Contribution for L=            1  read in
    real space projection operators read in
    PAW grid and wavefunctions read in
 
   number of l-projection  operators is LMAX  =            6
   number of lm-projection operators is LMMAX =           18
 
  PAW_PBE Ge_d 03Jul2007                :
 energy of atom  1       EATOM=-2596.2402
 kinetic energy error for atom=    0.0077 (will be added to EATOM!!)
 
 
 POSCAR: cubic diamond Ge
  positions in direct lattice
  velocities in cartesian coordinates
 exchange correlation table for  LEXCH =        8
   RHO(1)=    0.500       N(1)  =     2000
   RHO(2)=  100.500       N(2)  =     4000
 


--------------------------------------------------------------------------------------------------------


 ion  position               nearest neighbor table
   1  0.875  0.875  0.875-   2 2.37   2 2.37   2 2.37   2 2.37
   2  0.125  0.125  0.125-   1 2.37   1 2.37   1 2.37   1 2.37
 
  LATTYP: Found a face centered cubic cell.
 ALAT       =     5.4686207326
  
  Lattice vectors:
  
 A1 = (   0.0000000000,   2.7343103663,   2.7343103663)
 A2 = (   2.7343103663,   0.0000000000,   2.7343103663)
 A3 = (   2.7343103663,   2.7343103663,   0.0000000000)


Analysis of symmetry for initial positions (statically):
=====================================================================
 Subroutine PRICEL returns:
 Original cell was already a primitive cell.
 

 Routine SETGRP: Setting up the symmetry group for a 
 face centered cubic supercell.


 Subroutine GETGRP returns: Found 48 space group operations
 (whereof 12 operations were pure point group operations)
 out of a pool of 48 trial point group operations.


The static configuration has the point symmetry D_3d.
 The point group associated with its full space group is O_h .


Analysis of symmetry for dynamics (positions and initial velocities):
=====================================================================
 Subroutine PRICEL returns:
 Original cell was already a primitive cell.
 

 Routine SETGRP: Setting up the symmetry group for a 
 face centered cubic supercell.


 Subroutine GETGRP returns: Found 48 space group operations
 (whereof 12 operations were pure point group operations)
 out of a pool of 48 trial point group operations.


The dynamic configuration has the point symmetry D_3d.
 The point group associated with its full space group is O_h .


 Subroutine INISYM returns: Found 48 space group operations
 (whereof 12 operations are pure point group operations),
 and found     1 'primitive' translations


----------------------------------------------------------------------------------------

                                     Primitive cell                                     

  volume of cell :      40.8859

  direct lattice vectors                    reciprocal lattice vectors
     0.000000000  2.734310366  2.734310366    -0.182861465  0.182861465  0.182861465
     2.734310366  0.000000000  2.734310366     0.182861465 -0.182861465  0.182861465
     2.734310366  2.734310366  0.000000000     0.182861465  0.182861465 -0.182861465

  length of vectors
     3.866898804  3.866898804  3.866898804     0.316725349  0.316725349  0.316725349

  position of ions in fractional coordinates (direct lattice)
     0.875000000  0.875000000  0.875000000
     0.125000000  0.125000000  0.125000000

  ion indices of the primitive-cell ions
   primitive index   ion index
                 1           1
                 2           2

----------------------------------------------------------------------------------------

 
 
 KPOINTS: 0.040   8   8   8   29  0.050  100    6 

Read explicit list of k-points.

 Found    129 k-points:

 Following reciprocal coordinates:
            Coordinates               Weight
  0.000000  0.000000  0.000000      0.001953
  0.125000  0.000000  0.000000      0.015625
  0.250000  0.000000  0.000000      0.015625
  0.375000  0.000000  0.000000      0.015625
  0.500000  0.000000  0.000000      0.007813
  0.125000  0.125000  0.000000      0.011719
  0.250000  0.125000  0.000000      0.046875
  0.375000  0.125000  0.000000      0.046875
  0.500000  0.125000  0.000000      0.046875
 -0.375000  0.125000  0.000000      0.046875
 -0.250000  0.125000  0.000000      0.046875
 -0.125000  0.125000  0.000000      0.023438
  0.250000  0.250000  0.000000      0.011719
  0.375000  0.250000  0.000000      0.046875
  0.500000  0.250000  0.000000      0.046875
 -0.375000  0.250000  0.000000      0.046875
 -0.250000  0.250000  0.000000      0.023438
  0.375000  0.375000  0.000000      0.011719
  0.500000  0.375000  0.000000      0.046875
 -0.375000  0.375000  0.000000      0.023438
  0.500000  0.500000  0.000000      0.005859
  0.375000  0.250000  0.125000      0.046875
  0.500000  0.250000  0.125000      0.093750
 -0.375000  0.250000  0.125000      0.046875
  0.500000  0.375000  0.125000      0.046875
 -0.375000  0.375000  0.125000      0.093750
 -0.250000  0.375000  0.125000      0.046875
 -0.375000  0.500000  0.125000      0.023438
 -0.250000  0.500000  0.250000      0.011719
  0.000000  0.000000  0.000000      0.000000
  0.023810  0.000000  0.023810      0.000000
  0.047619  0.000000  0.047619      0.000000
  0.071429  0.000000  0.071429      0.000000
  0.095238  0.000000  0.095238      0.000000
  0.119048  0.000000  0.119048      0.000000
  0.142857  0.000000  0.142857      0.000000
  0.166667  0.000000  0.166667      0.000000
  0.190476  0.000000  0.190476      0.000000
  0.214286  0.000000  0.214286      0.000000
  0.238095  0.000000  0.238095      0.000000
  0.261905  0.000000  0.261905      0.000000
  0.285714  0.000000  0.285714      0.000000
  0.309524  0.000000  0.309524      0.000000
  0.333333  0.000000  0.333333      0.000000
  0.357143  0.000000  0.357143      0.000000
  0.380952  0.000000  0.380952      0.000000
  0.404762  0.000000  0.404762      0.000000
  0.428571  0.000000  0.428571      0.000000
  0.452381  0.000000  0.452381      0.000000
  0.476190  0.000000  0.476190      0.000000
  0.500000  0.000000  0.500000      0.000000
  0.500000  0.000000  0.500000      0.000000
  0.517857  0.035714  0.517857      0.000000
  0.535714  0.071429  0.535714      0.000000
  0.553571  0.107143  0.553571      0.000000
  0.571429  0.142857  0.571429      0.000000
  0.589286  0.178571  0.589286      0.000000
  0.607143  0.214286  0.607143      0.000000
  0.625000  0.250000  0.625000      0.000000
  0.375000  0.375000  0.750000      0.000000
  0.358696  0.358696  0.717391      0.000000
  0.342391  0.342391  0.684783      0.000000
  0.326087  0.326087  0.652174      0.000000
  0.309783  0.309783  0.619565      0.000000
  0.293478  0.293478  0.586957      0.000000
  0.277174  0.277174  0.554348      0.000000
  0.260870  0.260870  0.521739      0.000000
  0.244565  0.244565  0.489130      0.000000
  0.228261  0.228261  0.456522      0.000000
  0.211957  0.211957  0.423913      0.000000
  0.195652  0.195652  0.391304      0.000000
  0.179348  0.179348  0.358696      0.000000
  0.163043  0.163043  0.326087      0.000000
  0.146739  0.146739  0.293478      0.000000
  0.130435  0.130435  0.260870      0.000000
  0.114130  0.114130  0.228261      0.000000
  0.097826  0.097826  0.195652      0.000000
  0.081522  0.081522  0.163043      0.000000
  0.065217  0.065217  0.130435      0.000000
  0.048913  0.048913  0.097826      0.000000
  0.032609  0.032609  0.065217      0.000000
  0.016304  0.016304  0.032609      0.000000
  0.000000  0.000000  0.000000      0.000000
  0.000000  0.000000  0.000000      0.000000
  0.027778  0.027778  0.027778      0.000000
  0.055556  0.055556  0.055556      0.000000
  0.083333  0.083333  0.083333      0.000000
  0.111111  0.111111  0.111111      0.000000
  0.138889  0.138889  0.138889      0.000000
  0.166667  0.166667  0.166667      0.000000
  0.194444  0.194444  0.194444      0.000000
  0.222222  0.222222  0.222222      0.000000
  0.250000  0.250000  0.250000      0.000000
  0.277778  0.277778  0.277778      0.000000
  0.305556  0.305556  0.305556      0.000000
  0.333333  0.333333  0.333333      0.000000
  0.361111  0.361111  0.361111      0.000000
  0.388889  0.388889  0.388889      0.000000
  0.416667  0.416667  0.416667      0.000000
  0.444444  0.444444  0.444444      0.000000
  0.472222  0.472222  0.472222      0.000000
  0.500000  0.500000  0.500000      0.000000
  0.500000  0.500000  0.500000      0.000000
  0.500000  0.483333  0.516667      0.000000
  0.500000  0.466667  0.533333      0.000000
  0.500000  0.450000  0.550000      0.000000
  0.500000  0.433333  0.566667      0.000000
  0.500000  0.416667  0.583333      0.000000
  0.500000  0.400000  0.600000      0.000000
  0.500000  0.383333  0.616667      0.000000
  0.500000  0.366667  0.633333      0.000000
  0.500000  0.350000  0.650000      0.000000
  0.500000  0.333333  0.666667      0.000000
  0.500000  0.316667  0.683333      0.000000
  0.500000  0.300000  0.700000      0.000000
  0.500000  0.283333  0.716667      0.000000
  0.500000  0.266667  0.733333      0.000000
  0.500000  0.250000  0.750000      0.000000
  0.500000  0.250000  0.750000      0.000000
  0.500000  0.225000  0.725000      0.000000
  0.500000  0.200000  0.700000      0.000000
  0.500000  0.175000  0.675000      0.000000
  0.500000  0.150000  0.650000      0.000000
  0.500000  0.125000  0.625000      0.000000
  0.500000  0.100000  0.600000      0.000000
  0.500000  0.075000  0.575000      0.000000
  0.500000  0.050000  0.550000      0.000000
  0.500000  0.025000  0.525000      0.000000
  0.500000  0.000000  0.500000      0.000000

 Following cartesian coordinates:
            Coordinates               Weight
  0.000000  0.000000  0.000000      0.001953
 -0.129318  0.129318  0.129318      0.015625
 -0.258637  0.258637  0.258637      0.015625
 -0.387955  0.387955  0.387955      0.015625
 -0.517273  0.517273  0.517273      0.007813
  0.000000  0.000000  0.258637      0.011719
 -0.129318  0.129318  0.387955      0.046875
 -0.258637  0.258637  0.517273      0.046875
 -0.387955  0.387955  0.646591      0.046875
  0.517273 -0.517273 -0.258637      0.046875
  0.387955 -0.387955 -0.129318      0.046875
  0.258637 -0.258637  0.000000      0.023438
  0.000000  0.000000  0.517273      0.011719
 -0.129318  0.129318  0.646591      0.046875
 -0.258637  0.258637  0.775910      0.046875
  0.646591 -0.646591 -0.129318      0.046875
  0.517273 -0.517273  0.000000      0.023438
  0.000000  0.000000  0.775910      0.011719
 -0.129318  0.129318  0.905228      0.046875
  0.775910 -0.775910  0.000000      0.023438
  0.000000  0.000000  1.034546      0.005859
  0.000000  0.258637  0.517273      0.046875
 -0.129318  0.387955  0.646591      0.093750
  0.775910 -0.517273 -0.258637      0.046875
 -0.000000  0.258637  0.775910      0.046875
  0.905228 -0.646591 -0.129318      0.093750
  0.775910 -0.517273 -0.000000      0.046875
  1.034546 -0.775910  0.000000      0.023438
  1.034546 -0.517273  0.000000      0.011719
  0.000000  0.000000  0.000000      0.000000
  0.000000  0.049264  0.000000      0.000000
  0.000000  0.098528  0.000000      0.000000
  0.000000  0.147792  0.000000      0.000000
  0.000000  0.197056  0.000000      0.000000
  0.000000  0.246320  0.000000      0.000000
  0.000000  0.295585  0.000000      0.000000
  0.000000  0.344849  0.000000      0.000000
  0.000000  0.394113  0.000000      0.000000
  0.000000  0.443377  0.000000      0.000000
  0.000000  0.492641  0.000000      0.000000
  0.000000  0.541905  0.000000      0.000000
  0.000000  0.591169  0.000000      0.000000
  0.000000  0.640433  0.000000      0.000000
  0.000000  0.689697  0.000000      0.000000
  0.000000  0.738961  0.000000      0.000000
  0.000000  0.788226  0.000000      0.000000
  0.000000  0.837490  0.000000      0.000000
  0.000000  0.886754  0.000000      0.000000
  0.000000  0.936018  0.000000      0.000000
  0.000000  0.985282  0.000000      0.000000
  0.000000  1.034546  0.000000      0.000000
  0.000000  1.034546  0.000000      0.000000
  0.036948  1.034546  0.036948      0.000000
  0.073896  1.034546  0.073896      0.000000
  0.110844  1.034546  0.110844      0.000000
  0.147792  1.034546  0.147792      0.000000
  0.184740  1.034546  0.184740      0.000000
  0.221688  1.034546  0.221688      0.000000
  0.258637  1.034546  0.258637      0.000000
  0.775910  0.775910  0.000000      0.000000
  0.742174  0.742174 -0.000000      0.000000
  0.708439  0.708439  0.000000      0.000000
  0.674704  0.674704  0.000000      0.000000
  0.640969  0.640969  0.000000      0.000000
  0.607234  0.607234  0.000000      0.000000
  0.573498  0.573498  0.000000      0.000000
  0.539763  0.539763  0.000000      0.000000
  0.506028  0.506028 -0.000000      0.000000
  0.472293  0.472293  0.000000      0.000000
  0.438558  0.438558  0.000000      0.000000
  0.404822  0.404822 -0.000000      0.000000
  0.371087  0.371087  0.000000      0.000000
  0.337352  0.337352  0.000000      0.000000
  0.303617  0.303617 -0.000000      0.000000
  0.269882  0.269882  0.000000      0.000000
  0.236146  0.236146  0.000000      0.000000
  0.202411  0.202411  0.000000      0.000000
  0.168676  0.168676 -0.000000      0.000000
  0.134941  0.134941  0.000000      0.000000
  0.101206  0.101206  0.000000      0.000000
  0.067470  0.067470 -0.000000      0.000000
  0.033735  0.033735  0.000000      0.000000
  0.000000  0.000000  0.000000      0.000000
  0.000000  0.000000  0.000000      0.000000
  0.028737  0.028737  0.028737      0.000000
  0.057475  0.057475  0.057475      0.000000
  0.086212  0.086212  0.086212      0.000000
  0.114950  0.114950  0.114950      0.000000
  0.143687  0.143687  0.143687      0.000000
  0.172424  0.172424  0.172424      0.000000
  0.201162  0.201162  0.201162      0.000000
  0.229899  0.229899  0.229899      0.000000
  0.258637  0.258637  0.258637      0.000000
  0.287374  0.287374  0.287374      0.000000
  0.316111  0.316111  0.316111      0.000000
  0.344849  0.344849  0.344849      0.000000
  0.373586  0.373586  0.373586      0.000000
  0.402323  0.402323  0.402323      0.000000
  0.431061  0.431061  0.431061      0.000000
  0.459798  0.459798  0.459798      0.000000
  0.488536  0.488536  0.488536      0.000000
  0.517273  0.517273  0.517273      0.000000
  0.517273  0.517273  0.517273      0.000000
  0.517273  0.551758  0.482788      0.000000
  0.517273  0.586243  0.448303      0.000000
  0.517273  0.620728  0.413818      0.000000
  0.517273  0.655213  0.379334      0.000000
  0.517273  0.689697  0.344849      0.000000
  0.517273  0.724182  0.310364      0.000000
  0.517273  0.758667  0.275879      0.000000
  0.517273  0.793152  0.241394      0.000000
  0.517273  0.827637  0.206909      0.000000
  0.517273  0.862122  0.172424      0.000000
  0.517273  0.896607  0.137939      0.000000
  0.517273  0.931091  0.103455      0.000000
  0.517273  0.965576  0.068970      0.000000
  0.517273  1.000061  0.034485      0.000000
  0.517273  1.034546  0.000000      0.000000
  0.517273  1.034546  0.000000      0.000000
  0.465546  1.034546  0.000000      0.000000
  0.413818  1.034546  0.000000      0.000000
  0.362091  1.034546  0.000000      0.000000
  0.310364  1.034546  0.000000      0.000000
  0.258637  1.034546  0.000000      0.000000
  0.206909  1.034546  0.000000      0.000000
  0.155182  1.034546  0.000000      0.000000
  0.103455  1.034546  0.000000      0.000000
  0.051727  1.034546  0.000000      0.000000
  0.000000  1.034546  0.000000      0.000000
 
 
 Subroutine IBZKPT_HF returns following result:
 ==============================================
 
 Found    612 k-points in 1st BZ
 the following    612 k-points will be used (e.g. in the exchange kernel)
 Following reciprocal coordinates:   # in IRBZ
  0.000000  0.000000  0.000000    0.00195313   1 t-inv F
  0.125000  0.000000  0.000000    0.00195313   2 t-inv F
  0.250000  0.000000  0.000000    0.00195313   3 t-inv F
  0.375000  0.000000  0.000000    0.00195313   4 t-inv F
  0.500000  0.000000  0.000000    0.00195313   5 t-inv F
  0.125000  0.125000  0.000000    0.00195313   6 t-inv F
  0.250000  0.125000  0.000000    0.00195313   7 t-inv F
  0.375000  0.125000  0.000000    0.00195313   8 t-inv F
  0.500000  0.125000  0.000000    0.00195313   9 t-inv F
 -0.375000  0.125000  0.000000    0.00195313  10 t-inv F
 -0.250000  0.125000  0.000000    0.00195313  11 t-inv F
 -0.125000  0.125000  0.000000    0.00195313  12 t-inv F
  0.250000  0.250000  0.000000    0.00195313  13 t-inv F
  0.375000  0.250000  0.000000    0.00195313  14 t-inv F
  0.500000  0.250000  0.000000    0.00195313  15 t-inv F
 -0.375000  0.250000  0.000000    0.00195313  16 t-inv F
 -0.250000  0.250000  0.000000    0.00195313  17 t-inv F
  0.375000  0.375000  0.000000    0.00195313  18 t-inv F
  0.500000  0.375000  0.000000    0.00195313  19 t-inv F
 -0.375000  0.375000  0.000000    0.00195313  20 t-inv F
  0.500000  0.500000  0.000000    0.00195313  21 t-inv F
  0.375000  0.250000  0.125000    0.00195313  22 t-inv F
  0.500000  0.250000  0.125000    0.00195313  23 t-inv F
 -0.375000  0.250000  0.125000    0.00195313  24 t-inv F
  0.500000  0.375000  0.125000    0.00195313  25 t-inv F
 -0.375000  0.375000  0.125000    0.00195313  26 t-inv F
 -0.250000  0.375000  0.125000    0.00195313  27 t-inv F
 -0.375000  0.500000  0.125000    0.00195313  28 t-inv F
 -0.250000  0.500000  0.250000    0.00195313  29 t-inv F
  0.000000  0.000000  0.000000    0.00000000  30 t-inv F
  0.023810  0.000000  0.023810    0.00000000  31 t-inv F
  0.047619  0.000000  0.047619    0.00000000  32 t-inv F
  0.071429  0.000000  0.071429    0.00000000  33 t-inv F
  0.095238  0.000000  0.095238    0.00000000  34 t-inv F
  0.119048  0.000000  0.119048    0.00000000  35 t-inv F
  0.142857  0.000000  0.142857    0.00000000  36 t-inv F
  0.166667  0.000000  0.166667    0.00000000  37 t-inv F
  0.190476  0.000000  0.190476    0.00000000  38 t-inv F
  0.214286  0.000000  0.214286    0.00000000  39 t-inv F
  0.238095  0.000000  0.238095    0.00000000  40 t-inv F
  0.261905  0.000000  0.261905    0.00000000  41 t-inv F
  0.285714  0.000000  0.285714    0.00000000  42 t-inv F
  0.309524  0.000000  0.309524    0.00000000  43 t-inv F
  0.333333  0.000000  0.333333    0.00000000  44 t-inv F
  0.357143  0.000000  0.357143    0.00000000  45 t-inv F
  0.380952  0.000000  0.380952    0.00000000  46 t-inv F
  0.404762  0.000000  0.404762    0.00000000  47 t-inv F
  0.428571  0.000000  0.428571    0.00000000  48 t-inv F
  0.452381  0.000000  0.452381    0.00000000  49 t-inv F
  0.476190  0.000000  0.476190    0.00000000  50 t-inv F
  0.500000  0.000000  0.500000    0.00000000  51 t-inv F
  0.500000  0.000000  0.500000    0.00000000  52 t-inv F
  0.517857  0.035714  0.517857    0.00000000  53 t-inv F
  0.535714  0.071429  0.535714    0.00000000  54 t-inv F
  0.553571  0.107143  0.553571    0.00000000  55 t-inv F
  0.571429  0.142857  0.571429    0.00000000  56 t-inv F
  0.589286  0.178571  0.589286    0.00000000  57 t-inv F
  0.607143  0.214286  0.607143    0.00000000  58 t-inv F
  0.625000  0.250000  0.625000    0.00000000  59 t-inv F
  0.375000  0.375000  0.750000    0.00000000  60 t-inv F
  0.358696  0.358696  0.717391    0.00000000  61 t-inv F
  0.342391  0.342391  0.684783    0.00000000  62 t-inv F
  0.326087  0.326087  0.652174    0.00000000  63 t-inv F
  0.309783  0.309783  0.619565    0.00000000  64 t-inv F
  0.293478  0.293478  0.586957    0.00000000  65 t-inv F
  0.277174  0.277174  0.554348    0.00000000  66 t-inv F
  0.260870  0.260870  0.521739    0.00000000  67 t-inv F
  0.244565  0.244565  0.489130    0.00000000  68 t-inv F
  0.228261  0.228261  0.456522    0.00000000  69 t-inv F
  0.211957  0.211957  0.423913    0.00000000  70 t-inv F
  0.195652  0.195652  0.391304    0.00000000  71 t-inv F
  0.179348  0.179348  0.358696    0.00000000  72 t-inv F
  0.163043  0.163043  0.326087    0.00000000  73 t-inv F
  0.146739  0.146739  0.293478    0.00000000  74 t-inv F
  0.130435  0.130435  0.260870    0.00000000  75 t-inv F
  0.114130  0.114130  0.228261    0.00000000  76 t-inv F
  0.097826  0.097826  0.195652    0.00000000  77 t-inv F
  0.081522  0.081522  0.163043    0.00000000  78 t-inv F
  0.065217  0.065217  0.130435    0.00000000  79 t-inv F
  0.048913  0.048913  0.097826    0.00000000  80 t-inv F
  0.032609  0.032609  0.065217    0.00000000  81 t-inv F
  0.016304  0.016304  0.032609    0.00000000  82 t-inv F
  0.000000  0.000000  0.000000    0.00000000  83 t-inv F
  0.000000  0.000000  0.000000    0.00000000  84 t-inv F
  0.027778  0.027778  0.027778    0.00000000  85 t-inv F
  0.055556  0.055556  0.055556    0.00000000  86 t-inv F
  0.083333  0.083333  0.083333    0.00000000  87 t-inv F
  0.111111  0.111111  0.111111    0.00000000  88 t-inv F
  0.138889  0.138889  0.138889    0.00000000  89 t-inv F
  0.166667  0.166667  0.166667    0.00000000  90 t-inv F
  0.194444  0.194444  0.194444    0.00000000  91 t-inv F
  0.222222  0.222222  0.222222    0.00000000  92 t-inv F
  0.250000  0.250000  0.250000    0.00000000  93 t-inv F
  0.277778  0.277778  0.277778    0.00000000  94 t-inv F
  0.305556  0.305556  0.305556    0.00000000  95 t-inv F
  0.333333  0.333333  0.333333    0.00000000  96 t-inv F
  0.361111  0.361111  0.361111    0.00000000  97 t-inv F
  0.388889  0.388889  0.388889    0.00000000  98 t-inv F
  0.416667  0.416667  0.416667    0.00000000  99 t-inv F
  0.444444  0.444444  0.444444    0.00000000 100 t-inv F
  0.472222  0.472222  0.472222    0.00000000 101 t-inv F
  0.500000  0.500000  0.500000    0.00000000 102 t-inv F
  0.500000  0.500000  0.500000    0.00000000 103 t-inv F
  0.500000  0.483333  0.516667    0.00000000 104 t-inv F
  0.500000  0.466667  0.533333    0.00000000 105 t-inv F
  0.500000  0.450000  0.550000    0.00000000 106 t-inv F
  0.500000  0.433333  0.566667    0.00000000 107 t-inv F
  0.500000  0.416667  0.583333    0.00000000 108 t-inv F
  0.500000  0.400000  0.600000    0.00000000 109 t-inv F
  0.500000  0.383333  0.616667    0.00000000 110 t-inv F
  0.500000  0.366667  0.633333    0.00000000 111 t-inv F
  0.500000  0.350000  0.650000    0.00000000 112 t-inv F
  0.500000  0.333333  0.666667    0.00000000 113 t-inv F
  0.500000  0.316667  0.683333    0.00000000 114 t-inv F
  0.500000  0.300000  0.700000    0.00000000 115 t-inv F
  0.500000  0.283333  0.716667    0.00000000 116 t-inv F
  0.500000  0.266667  0.733333    0.00000000 117 t-inv F
  0.500000  0.250000  0.750000    0.00000000 118 t-inv F
  0.500000  0.250000  0.750000    0.00000000 119 t-inv F
  0.500000  0.225000  0.725000    0.00000000 120 t-inv F
  0.500000  0.200000  0.700000    0.00000000 121 t-inv F
  0.500000  0.175000  0.675000    0.00000000 122 t-inv F
  0.500000  0.150000  0.650000    0.00000000 123 t-inv F
  0.500000  0.125000  0.625000    0.00000000 124 t-inv F
  0.500000  0.100000  0.600000    0.00000000 125 t-inv F
  0.500000  0.075000  0.575000    0.00000000 126 t-inv F
  0.500000  0.050000  0.550000    0.00000000 127 t-inv F
  0.500000  0.025000  0.525000    0.00000000 128 t-inv F
  0.500000  0.000000  0.500000    0.00000000 129 t-inv F
 -0.125000  0.000000  0.000000    0.00195313   2 t-inv F
  0.000000  0.125000  0.000000    0.00195313   2 t-inv F
  0.000000 -0.125000  0.000000    0.00195313   2 t-inv F
  0.000000  0.000000  0.125000    0.00195313   2 t-inv F
  0.000000  0.000000 -0.125000    0.00195313   2 t-inv F
  0.125000  0.125000  0.125000    0.00195313   2 t-inv F
 -0.125000 -0.125000 -0.125000    0.00195313   2 t-inv F
 -0.250000  0.000000  0.000000    0.00195313   3 t-inv F
  0.000000  0.250000  0.000000    0.00195313   3 t-inv F
  0.000000 -0.250000  0.000000    0.00195313   3 t-inv F
  0.000000  0.000000  0.250000    0.00195313   3 t-inv F
  0.000000  0.000000 -0.250000    0.00195313   3 t-inv F
  0.250000  0.250000  0.250000    0.00195313   3 t-inv F
 -0.250000 -0.250000 -0.250000    0.00195313   3 t-inv F
 -0.375000  0.000000  0.000000    0.00195313   4 t-inv F
  0.000000  0.375000  0.000000    0.00195313   4 t-inv F
  0.000000 -0.375000  0.000000    0.00195313   4 t-inv F
  0.000000  0.000000  0.375000    0.00195313   4 t-inv F
  0.000000  0.000000 -0.375000    0.00195313   4 t-inv F
  0.375000  0.375000  0.375000    0.00195313   4 t-inv F
 -0.375000 -0.375000 -0.375000    0.00195313   4 t-inv F
  0.000000  0.500000  0.000000    0.00195313   5 t-inv F
  0.000000  0.000000  0.500000    0.00195313   5 t-inv F
  0.500000  0.500000  0.500000    0.00195313   5 t-inv F
 -0.125000 -0.125000  0.000000    0.00195313   6 t-inv F
  0.000000  0.125000  0.125000    0.00195313   6 t-inv F
  0.000000 -0.125000 -0.125000    0.00195313   6 t-inv F
  0.125000  0.000000  0.125000    0.00195313   6 t-inv F
 -0.125000  0.000000 -0.125000    0.00195313   6 t-inv F
 -0.250000 -0.125000  0.000000    0.00195313   7 t-inv F
  0.000000  0.250000  0.125000    0.00195313   7 t-inv F
  0.000000 -0.250000 -0.125000    0.00195313   7 t-inv F
  0.125000  0.000000  0.250000    0.00195313   7 t-inv F
 -0.125000  0.000000 -0.250000    0.00195313   7 t-inv F
 -0.250000  0.000000 -0.125000    0.00195313   7 t-inv F
  0.250000  0.000000  0.125000    0.00195313   7 t-inv F
 -0.125000 -0.250000  0.000000    0.00195313   7 t-inv F
  0.125000  0.250000  0.000000    0.00195313   7 t-inv F
  0.000000 -0.125000 -0.250000    0.00195313   7 t-inv F
  0.000000  0.125000  0.250000    0.00195313   7 t-inv F
  0.125000  0.125000 -0.125000    0.00195313   7 t-inv F
 -0.125000 -0.125000  0.125000    0.00195313   7 t-inv F
  0.250000  0.125000  0.250000    0.00195313   7 t-inv F
 -0.250000 -0.125000 -0.250000    0.00195313   7 t-inv F
  0.125000 -0.125000 -0.125000    0.00195313   7 t-inv F
 -0.125000  0.125000  0.125000    0.00195313   7 t-inv F
  0.250000  0.250000  0.125000    0.00195313   7 t-inv F
 -0.250000 -0.250000 -0.125000    0.00195313   7 t-inv F
 -0.125000  0.125000 -0.125000    0.00195313   7 t-inv F
  0.125000 -0.125000  0.125000    0.00195313   7 t-inv F
  0.125000  0.250000  0.250000    0.00195313   7 t-inv F
 -0.125000 -0.250000 -0.250000    0.00195313   7 t-inv F
 -0.375000 -0.125000  0.000000    0.00195313   8 t-inv F
  0.000000  0.375000  0.125000    0.00195313   8 t-inv F
  0.000000 -0.375000 -0.125000    0.00195313   8 t-inv F
  0.125000  0.000000  0.375000    0.00195313   8 t-inv F
 -0.125000  0.000000 -0.375000    0.00195313   8 t-inv F
 -0.375000  0.000000 -0.125000    0.00195313   8 t-inv F
  0.375000  0.000000  0.125000    0.00195313   8 t-inv F
 -0.125000 -0.375000  0.000000    0.00195313   8 t-inv F
  0.125000  0.375000  0.000000    0.00195313   8 t-inv F
  0.000000 -0.125000 -0.375000    0.00195313   8 t-inv F
  0.000000  0.125000  0.375000    0.00195313   8 t-inv F
  0.125000  0.125000 -0.250000    0.00195313   8 t-inv F
 -0.125000 -0.125000  0.250000    0.00195313   8 t-inv F
  0.375000  0.250000  0.375000    0.00195313   8 t-inv F
 -0.375000 -0.250000 -0.375000    0.00195313   8 t-inv F
  0.250000 -0.125000 -0.125000    0.00195313   8 t-inv F
 -0.250000  0.125000  0.125000    0.00195313   8 t-inv F
  0.375000  0.375000  0.250000    0.00195313   8 t-inv F
 -0.375000 -0.375000 -0.250000    0.00195313   8 t-inv F
 -0.125000  0.250000 -0.125000    0.00195313   8 t-inv F
  0.125000 -0.250000  0.125000    0.00195313   8 t-inv F
  0.250000  0.375000  0.375000    0.00195313   8 t-inv F
 -0.250000 -0.375000 -0.375000    0.00195313   8 t-inv F
 -0.500000 -0.125000  0.000000    0.00195313   9 t-inv F
  0.000000  0.500000  0.125000    0.00195313   9 t-inv F
  0.000000 -0.500000 -0.125000    0.00195313   9 t-inv F
  0.125000  0.000000  0.500000    0.00195313   9 t-inv F
 -0.125000  0.000000 -0.500000    0.00195313   9 t-inv F
 -0.500000  0.000000 -0.125000    0.00195313   9 t-inv F
  0.500000  0.000000  0.125000    0.00195313   9 t-inv F
 -0.125000 -0.500000  0.000000    0.00195313   9 t-inv F
  0.125000  0.500000  0.000000    0.00195313   9 t-inv F
  0.000000 -0.125000 -0.500000    0.00195313   9 t-inv F
  0.000000  0.125000  0.500000    0.00195313   9 t-inv F
  0.125000  0.125000 -0.375000    0.00195313   9 t-inv F
 -0.125000 -0.125000  0.375000    0.00195313   9 t-inv F
  0.500000  0.375000  0.500000    0.00195313   9 t-inv F
 -0.500000 -0.375000 -0.500000    0.00195313   9 t-inv F
  0.375000 -0.125000 -0.125000    0.00195313   9 t-inv F
 -0.375000  0.125000  0.125000    0.00195313   9 t-inv F
  0.500000  0.500000  0.375000    0.00195313   9 t-inv F
 -0.500000 -0.500000 -0.375000    0.00195313   9 t-inv F
 -0.125000  0.375000 -0.125000    0.00195313   9 t-inv F
  0.125000 -0.375000  0.125000    0.00195313   9 t-inv F
  0.375000  0.500000  0.500000    0.00195313   9 t-inv F
 -0.375000 -0.500000 -0.500000    0.00195313   9 t-inv F
  0.375000 -0.125000  0.000000    0.00195313  10 t-inv F
  0.000000 -0.375000  0.125000    0.00195313  10 t-inv F
  0.000000  0.375000 -0.125000    0.00195313  10 t-inv F
  0.125000  0.000000 -0.375000    0.00195313  10 t-inv F
 -0.125000  0.000000  0.375000    0.00195313  10 t-inv F
  0.375000  0.000000 -0.125000    0.00195313  10 t-inv F
 -0.375000  0.000000  0.125000    0.00195313  10 t-inv F
 -0.125000  0.375000  0.000000    0.00195313  10 t-inv F
  0.125000 -0.375000  0.000000    0.00195313  10 t-inv F
  0.000000 -0.125000  0.375000    0.00195313  10 t-inv F
  0.000000  0.125000 -0.375000    0.00195313  10 t-inv F
  0.125000  0.125000  0.500000    0.00195313  10 t-inv F
 -0.125000 -0.125000 -0.500000    0.00195313  10 t-inv F
 -0.375000 -0.500000 -0.375000    0.00195313  10 t-inv F
  0.375000  0.500000  0.375000    0.00195313  10 t-inv F
 -0.500000 -0.125000 -0.125000    0.00195313  10 t-inv F
  0.500000  0.125000  0.125000    0.00195313  10 t-inv F
 -0.375000 -0.375000 -0.500000    0.00195313  10 t-inv F
  0.375000  0.375000  0.500000    0.00195313  10 t-inv F
 -0.125000 -0.500000 -0.125000    0.00195313  10 t-inv F
  0.125000  0.500000  0.125000    0.00195313  10 t-inv F
 -0.500000 -0.375000 -0.375000    0.00195313  10 t-inv F
  0.500000  0.375000  0.375000    0.00195313  10 t-inv F
  0.250000 -0.125000  0.000000    0.00195313  11 t-inv F
  0.000000 -0.250000  0.125000    0.00195313  11 t-inv F
  0.000000  0.250000 -0.125000    0.00195313  11 t-inv F
  0.125000  0.000000 -0.250000    0.00195313  11 t-inv F
 -0.125000  0.000000  0.250000    0.00195313  11 t-inv F
  0.250000  0.000000 -0.125000    0.00195313  11 t-inv F
 -0.250000  0.000000  0.125000    0.00195313  11 t-inv F
 -0.125000  0.250000  0.000000    0.00195313  11 t-inv F
  0.125000 -0.250000  0.000000    0.00195313  11 t-inv F
  0.000000 -0.125000  0.250000    0.00195313  11 t-inv F
  0.000000  0.125000 -0.250000    0.00195313  11 t-inv F
  0.125000  0.125000  0.375000    0.00195313  11 t-inv F
 -0.125000 -0.125000 -0.375000    0.00195313  11 t-inv F
 -0.250000 -0.375000 -0.250000    0.00195313  11 t-inv F
  0.250000  0.375000  0.250000    0.00195313  11 t-inv F
 -0.375000 -0.125000 -0.125000    0.00195313  11 t-inv F
  0.375000  0.125000  0.125000    0.00195313  11 t-inv F
 -0.250000 -0.250000 -0.375000    0.00195313  11 t-inv F
  0.250000  0.250000  0.375000    0.00195313  11 t-inv F
 -0.125000 -0.375000 -0.125000    0.00195313  11 t-inv F
  0.125000  0.375000  0.125000    0.00195313  11 t-inv F
 -0.375000 -0.250000 -0.250000    0.00195313  11 t-inv F
  0.375000  0.250000  0.250000    0.00195313  11 t-inv F
  0.125000 -0.125000  0.000000    0.00195313  12 t-inv F
  0.000000 -0.125000  0.125000    0.00195313  12 t-inv F
  0.000000  0.125000 -0.125000    0.00195313  12 t-inv F
  0.125000  0.000000 -0.125000    0.00195313  12 t-inv F
 -0.125000  0.000000  0.125000    0.00195313  12 t-inv F
  0.125000  0.125000  0.250000    0.00195313  12 t-inv F
 -0.125000 -0.125000 -0.250000    0.00195313  12 t-inv F
 -0.125000 -0.250000 -0.125000    0.00195313  12 t-inv F
  0.125000  0.250000  0.125000    0.00195313  12 t-inv F
 -0.250000 -0.125000 -0.125000    0.00195313  12 t-inv F
  0.250000  0.125000  0.125000    0.00195313  12 t-inv F
 -0.250000 -0.250000  0.000000    0.00195313  13 t-inv F
  0.000000  0.250000  0.250000    0.00195313  13 t-inv F
  0.000000 -0.250000 -0.250000    0.00195313  13 t-inv F
  0.250000  0.000000  0.250000    0.00195313  13 t-inv F
 -0.250000  0.000000 -0.250000    0.00195313  13 t-inv F
 -0.375000 -0.250000  0.000000    0.00195313  14 t-inv F
  0.000000  0.375000  0.250000    0.00195313  14 t-inv F
  0.000000 -0.375000 -0.250000    0.00195313  14 t-inv F
  0.250000  0.000000  0.375000    0.00195313  14 t-inv F
 -0.250000  0.000000 -0.375000    0.00195313  14 t-inv F
 -0.375000  0.000000 -0.250000    0.00195313  14 t-inv F
  0.375000  0.000000  0.250000    0.00195313  14 t-inv F
 -0.250000 -0.375000  0.000000    0.00195313  14 t-inv F
  0.250000  0.375000  0.000000    0.00195313  14 t-inv F
  0.000000 -0.250000 -0.375000    0.00195313  14 t-inv F
  0.000000  0.250000  0.375000    0.00195313  14 t-inv F
  0.250000  0.250000 -0.125000    0.00195313  14 t-inv F
 -0.250000 -0.250000  0.125000    0.00195313  14 t-inv F
  0.375000  0.125000  0.375000    0.00195313  14 t-inv F
 -0.375000 -0.125000 -0.375000    0.00195313  14 t-inv F
  0.125000 -0.250000 -0.250000    0.00195313  14 t-inv F
 -0.125000  0.250000  0.250000    0.00195313  14 t-inv F
  0.375000  0.375000  0.125000    0.00195313  14 t-inv F
 -0.375000 -0.375000 -0.125000    0.00195313  14 t-inv F
 -0.250000  0.125000 -0.250000    0.00195313  14 t-inv F
  0.250000 -0.125000  0.250000    0.00195313  14 t-inv F
  0.125000  0.375000  0.375000    0.00195313  14 t-inv F
 -0.125000 -0.375000 -0.375000    0.00195313  14 t-inv F
 -0.500000 -0.250000  0.000000    0.00195313  15 t-inv F
  0.000000  0.500000  0.250000    0.00195313  15 t-inv F
  0.000000 -0.500000 -0.250000    0.00195313  15 t-inv F
  0.250000  0.000000  0.500000    0.00195313  15 t-inv F
 -0.250000  0.000000 -0.500000    0.00195313  15 t-inv F
 -0.500000  0.000000 -0.250000    0.00195313  15 t-inv F
  0.500000  0.000000  0.250000    0.00195313  15 t-inv F
 -0.250000 -0.500000  0.000000    0.00195313  15 t-inv F
  0.250000  0.500000  0.000000    0.00195313  15 t-inv F
  0.000000 -0.250000 -0.500000    0.00195313  15 t-inv F
  0.000000  0.250000  0.500000    0.00195313  15 t-inv F
  0.250000  0.250000 -0.250000    0.00195313  15 t-inv F
 -0.250000 -0.250000  0.250000    0.00195313  15 t-inv F
  0.500000  0.250000  0.500000    0.00195313  15 t-inv F
 -0.500000 -0.250000 -0.500000    0.00195313  15 t-inv F
  0.250000 -0.250000 -0.250000    0.00195313  15 t-inv F
 -0.250000  0.250000  0.250000    0.00195313  15 t-inv F
  0.500000  0.500000  0.250000    0.00195313  15 t-inv F
 -0.500000 -0.500000 -0.250000    0.00195313  15 t-inv F
 -0.250000  0.250000 -0.250000    0.00195313  15 t-inv F
  0.250000 -0.250000  0.250000    0.00195313  15 t-inv F
  0.250000  0.500000  0.500000    0.00195313  15 t-inv F
 -0.250000 -0.500000 -0.500000    0.00195313  15 t-inv F
  0.375000 -0.250000  0.000000    0.00195313  16 t-inv F
  0.000000 -0.375000  0.250000    0.00195313  16 t-inv F
  0.000000  0.375000 -0.250000    0.00195313  16 t-inv F
  0.250000  0.000000 -0.375000    0.00195313  16 t-inv F
 -0.250000  0.000000  0.375000    0.00195313  16 t-inv F
  0.375000  0.000000 -0.250000    0.00195313  16 t-inv F
 -0.375000  0.000000  0.250000    0.00195313  16 t-inv F
 -0.250000  0.375000  0.000000    0.00195313  16 t-inv F
  0.250000 -0.375000  0.000000    0.00195313  16 t-inv F
  0.000000 -0.250000  0.375000    0.00195313  16 t-inv F
  0.000000  0.250000 -0.375000    0.00195313  16 t-inv F
  0.250000  0.250000  0.625000    0.00195313  16 t-inv F
 -0.250000 -0.250000 -0.625000    0.00195313  16 t-inv F
 -0.375000 -0.625000 -0.375000    0.00195313  16 t-inv F
  0.375000  0.625000  0.375000    0.00195313  16 t-inv F
 -0.625000 -0.250000 -0.250000    0.00195313  16 t-inv F
  0.625000  0.250000  0.250000    0.00195313  16 t-inv F
 -0.375000 -0.375000 -0.625000    0.00195313  16 t-inv F
  0.375000  0.375000  0.625000    0.00195313  16 t-inv F
 -0.250000 -0.625000 -0.250000    0.00195313  16 t-inv F
  0.250000  0.625000  0.250000    0.00195313  16 t-inv F
 -0.625000 -0.375000 -0.375000    0.00195313  16 t-inv F
  0.625000  0.375000  0.375000    0.00195313  16 t-inv F
  0.250000 -0.250000  0.000000    0.00195313  17 t-inv F
  0.000000 -0.250000  0.250000    0.00195313  17 t-inv F
  0.000000  0.250000 -0.250000    0.00195313  17 t-inv F
  0.250000  0.000000 -0.250000    0.00195313  17 t-inv F
 -0.250000  0.000000  0.250000    0.00195313  17 t-inv F
  0.250000  0.250000  0.500000    0.00195313  17 t-inv F
 -0.250000 -0.250000 -0.500000    0.00195313  17 t-inv F
 -0.250000 -0.500000 -0.250000    0.00195313  17 t-inv F
  0.250000  0.500000  0.250000    0.00195313  17 t-inv F
 -0.500000 -0.250000 -0.250000    0.00195313  17 t-inv F
  0.500000  0.250000  0.250000    0.00195313  17 t-inv F
 -0.375000 -0.375000  0.000000    0.00195313  18 t-inv F
  0.000000  0.375000  0.375000    0.00195313  18 t-inv F
  0.000000 -0.375000 -0.375000    0.00195313  18 t-inv F
  0.375000  0.000000  0.375000    0.00195313  18 t-inv F
 -0.375000  0.000000 -0.375000    0.00195313  18 t-inv F
 -0.500000 -0.375000  0.000000    0.00195313  19 t-inv F
  0.000000  0.500000  0.375000    0.00195313  19 t-inv F
  0.000000 -0.500000 -0.375000    0.00195313  19 t-inv F
  0.375000  0.000000  0.500000    0.00195313  19 t-inv F
 -0.375000  0.000000 -0.500000    0.00195313  19 t-inv F
 -0.500000  0.000000 -0.375000    0.00195313  19 t-inv F
  0.500000  0.000000  0.375000    0.00195313  19 t-inv F
 -0.375000 -0.500000  0.000000    0.00195313  19 t-inv F
  0.375000  0.500000  0.000000    0.00195313  19 t-inv F
  0.000000 -0.375000 -0.500000    0.00195313  19 t-inv F
  0.000000  0.375000  0.500000    0.00195313  19 t-inv F
  0.375000  0.375000 -0.125000    0.00195313  19 t-inv F
 -0.375000 -0.375000  0.125000    0.00195313  19 t-inv F
  0.500000  0.125000  0.500000    0.00195313  19 t-inv F
 -0.500000 -0.125000 -0.500000    0.00195313  19 t-inv F
  0.125000 -0.375000 -0.375000    0.00195313  19 t-inv F
 -0.125000  0.375000  0.375000    0.00195313  19 t-inv F
  0.500000  0.500000  0.125000    0.00195313  19 t-inv F
 -0.500000 -0.500000 -0.125000    0.00195313  19 t-inv F
 -0.375000  0.125000 -0.375000    0.00195313  19 t-inv F
  0.375000 -0.125000  0.375000    0.00195313  19 t-inv F
  0.125000  0.500000  0.500000    0.00195313  19 t-inv F
 -0.125000 -0.500000 -0.500000    0.00195313  19 t-inv F
  0.375000 -0.375000  0.000000    0.00195313  20 t-inv F
  0.000000 -0.375000  0.375000    0.00195313  20 t-inv F
  0.000000  0.375000 -0.375000    0.00195313  20 t-inv F
  0.375000  0.000000 -0.375000    0.00195313  20 t-inv F
 -0.375000  0.000000  0.375000    0.00195313  20 t-inv F
  0.375000  0.375000  0.750000    0.00195313  20 t-inv F
 -0.375000 -0.375000 -0.750000    0.00195313  20 t-inv F
 -0.375000 -0.750000 -0.375000    0.00195313  20 t-inv F
  0.375000  0.750000  0.375000    0.00195313  20 t-inv F
 -0.750000 -0.375000 -0.375000    0.00195313  20 t-inv F
  0.750000  0.375000  0.375000    0.00195313  20 t-inv F
  0.000000  0.500000  0.500000    0.00195313  21 t-inv F
  0.500000  0.000000  0.500000    0.00195313  21 t-inv F
 -0.375000 -0.250000 -0.125000    0.00195313  22 t-inv F
  0.125000  0.375000  0.250000    0.00195313  22 t-inv F
 -0.125000 -0.375000 -0.250000    0.00195313  22 t-inv F
  0.250000  0.125000  0.375000    0.00195313  22 t-inv F
 -0.250000 -0.125000 -0.375000    0.00195313  22 t-inv F
 -0.375000 -0.125000 -0.250000    0.00195313  22 t-inv F
  0.375000  0.125000  0.250000    0.00195313  22 t-inv F
 -0.250000 -0.375000 -0.125000    0.00195313  22 t-inv F
  0.250000  0.375000  0.125000    0.00195313  22 t-inv F
 -0.125000 -0.250000 -0.375000    0.00195313  22 t-inv F
  0.125000  0.250000  0.375000    0.00195313  22 t-inv F
  0.250000  0.125000 -0.125000    0.00195313  22 t-inv F
 -0.250000 -0.125000  0.125000    0.00195313  22 t-inv F
  0.125000 -0.250000 -0.125000    0.00195313  22 t-inv F
 -0.125000  0.250000  0.125000    0.00195313  22 t-inv F
  0.125000  0.250000 -0.125000    0.00195313  22 t-inv F
 -0.125000 -0.250000  0.125000    0.00195313  22 t-inv F
  0.125000 -0.125000 -0.250000    0.00195313  22 t-inv F
 -0.125000  0.125000  0.250000    0.00195313  22 t-inv F
 -0.125000  0.125000 -0.250000    0.00195313  22 t-inv F
  0.125000 -0.125000  0.250000    0.00195313  22 t-inv F
 -0.250000  0.125000 -0.125000    0.00195313  22 t-inv F
  0.250000 -0.125000  0.125000    0.00195313  22 t-inv F
 -0.500000 -0.250000 -0.125000    0.00195313  23 t-inv F
  0.125000  0.500000  0.250000    0.00195313  23 t-inv F
 -0.125000 -0.500000 -0.250000    0.00195313  23 t-inv F
  0.250000  0.125000  0.500000    0.00195313  23 t-inv F
 -0.250000 -0.125000 -0.500000    0.00195313  23 t-inv F
 -0.500000 -0.125000 -0.250000    0.00195313  23 t-inv F
  0.500000  0.125000  0.250000    0.00195313  23 t-inv F
 -0.250000 -0.500000 -0.125000    0.00195313  23 t-inv F
  0.250000  0.500000  0.125000    0.00195313  23 t-inv F
 -0.125000 -0.250000 -0.500000    0.00195313  23 t-inv F
  0.125000  0.250000  0.500000    0.00195313  23 t-inv F
  0.250000  0.125000 -0.250000    0.00195313  23 t-inv F
 -0.250000 -0.125000  0.250000    0.00195313  23 t-inv F
  0.500000  0.250000  0.375000    0.00195313  23 t-inv F
 -0.500000 -0.250000 -0.375000    0.00195313  23 t-inv F
  0.125000 -0.375000 -0.125000    0.00195313  23 t-inv F
 -0.125000  0.375000  0.125000    0.00195313  23 t-inv F
  0.125000  0.375000 -0.125000    0.00195313  23 t-inv F
 -0.125000 -0.375000  0.125000    0.00195313  23 t-inv F
  0.250000 -0.125000 -0.250000    0.00195313  23 t-inv F
 -0.250000  0.125000  0.250000    0.00195313  23 t-inv F
 -0.375000 -0.250000 -0.500000    0.00195313  23 t-inv F
  0.375000  0.250000  0.500000    0.00195313  23 t-inv F
  0.375000  0.500000  0.250000    0.00195313  23 t-inv F
 -0.375000 -0.500000 -0.250000    0.00195313  23 t-inv F
 -0.125000  0.125000 -0.375000    0.00195313  23 t-inv F
  0.125000 -0.125000  0.375000    0.00195313  23 t-inv F
 -0.250000  0.250000  0.125000    0.00195313  23 t-inv F
  0.250000 -0.250000 -0.125000    0.00195313  23 t-inv F
 -0.125000  0.125000  0.375000    0.00195313  23 t-inv F
  0.125000 -0.125000 -0.375000    0.00195313  23 t-inv F
 -0.250000  0.250000 -0.125000    0.00195313  23 t-inv F
  0.250000 -0.250000  0.125000    0.00195313  23 t-inv F
 -0.500000 -0.375000 -0.250000    0.00195313  23 t-inv F
  0.500000  0.375000  0.250000    0.00195313  23 t-inv F
  0.250000  0.375000  0.500000    0.00195313  23 t-inv F
 -0.250000 -0.375000 -0.500000    0.00195313  23 t-inv F
 -0.375000 -0.125000  0.125000    0.00195313  23 t-inv F
  0.375000  0.125000 -0.125000    0.00195313  23 t-inv F
  0.125000 -0.250000  0.250000    0.00195313  23 t-inv F
 -0.125000  0.250000 -0.250000    0.00195313  23 t-inv F
  0.375000 -0.125000  0.125000    0.00195313  23 t-inv F
 -0.375000  0.125000 -0.125000    0.00195313  23 t-inv F
 -0.125000 -0.250000  0.250000    0.00195313  23 t-inv F
  0.125000  0.250000 -0.250000    0.00195313  23 t-inv F
 -0.250000 -0.500000 -0.375000    0.00195313  23 t-inv F
  0.250000  0.500000  0.375000    0.00195313  23 t-inv F
  0.375000 -0.250000 -0.125000    0.00195313  24 t-inv F
  0.125000 -0.375000  0.250000    0.00195313  24 t-inv F
 -0.125000  0.375000 -0.250000    0.00195313  24 t-inv F
  0.250000  0.125000 -0.375000    0.00195313  24 t-inv F
 -0.250000 -0.125000  0.375000    0.00195313  24 t-inv F
  0.375000 -0.125000 -0.250000    0.00195313  24 t-inv F
 -0.375000  0.125000  0.250000    0.00195313  24 t-inv F
 -0.250000  0.375000 -0.125000    0.00195313  24 t-inv F
  0.250000 -0.375000  0.125000    0.00195313  24 t-inv F
 -0.125000 -0.250000  0.375000    0.00195313  24 t-inv F
  0.125000  0.250000 -0.375000    0.00195313  24 t-inv F
 -0.375000 -0.625000 -0.500000    0.00195313  24 t-inv F
  0.375000  0.625000  0.500000    0.00195313  24 t-inv F
  0.125000  0.500000 -0.125000    0.00195313  24 t-inv F
 -0.125000 -0.500000  0.125000    0.00195313  24 t-inv F
  0.500000  0.625000  0.375000    0.00195313  24 t-inv F
 -0.500000 -0.625000 -0.375000    0.00195313  24 t-inv F
 -0.125000  0.125000  0.500000    0.00195313  24 t-inv F
  0.125000 -0.125000 -0.500000    0.00195313  24 t-inv F
  0.375000  0.500000  0.625000    0.00195313  24 t-inv F
 -0.375000 -0.500000 -0.625000    0.00195313  24 t-inv F
  0.500000 -0.125000  0.125000    0.00195313  24 t-inv F
 -0.500000  0.125000 -0.125000    0.00195313  24 t-inv F
 -0.500000 -0.375000 -0.125000    0.00195313  25 t-inv F
  0.125000  0.500000  0.375000    0.00195313  25 t-inv F
 -0.125000 -0.500000 -0.375000    0.00195313  25 t-inv F
  0.375000  0.125000  0.500000    0.00195313  25 t-inv F
 -0.375000 -0.125000 -0.500000    0.00195313  25 t-inv F
 -0.500000 -0.125000 -0.375000    0.00195313  25 t-inv F
  0.500000  0.125000  0.375000    0.00195313  25 t-inv F
 -0.375000 -0.500000 -0.125000    0.00195313  25 t-inv F
  0.375000  0.500000  0.125000    0.00195313  25 t-inv F
 -0.125000 -0.375000 -0.500000    0.00195313  25 t-inv F
  0.125000  0.375000  0.500000    0.00195313  25 t-inv F
  0.375000  0.250000 -0.125000    0.00195313  25 t-inv F
 -0.375000 -0.250000  0.125000    0.00195313  25 t-inv F
  0.125000 -0.375000 -0.250000    0.00195313  25 t-inv F
 -0.125000  0.375000  0.250000    0.00195313  25 t-inv F
  0.250000  0.375000 -0.125000    0.00195313  25 t-inv F
 -0.250000 -0.375000  0.125000    0.00195313  25 t-inv F
  0.125000 -0.250000 -0.375000    0.00195313  25 t-inv F
 -0.125000  0.250000  0.375000    0.00195313  25 t-inv F
 -0.250000  0.125000 -0.375000    0.00195313  25 t-inv F
  0.250000 -0.125000  0.375000    0.00195313  25 t-inv F
 -0.375000  0.125000 -0.250000    0.00195313  25 t-inv F
  0.375000 -0.125000  0.250000    0.00195313  25 t-inv F
  0.375000 -0.375000 -0.125000    0.00195313  26 t-inv F
  0.125000 -0.375000  0.375000    0.00195313  26 t-inv F
 -0.125000  0.375000 -0.375000    0.00195313  26 t-inv F
  0.375000  0.125000 -0.375000    0.00195313  26 t-inv F
 -0.375000 -0.125000  0.375000    0.00195313  26 t-inv F
  0.375000 -0.125000 -0.375000    0.00195313  26 t-inv F
 -0.375000  0.125000  0.375000    0.00195313  26 t-inv F
 -0.375000  0.375000 -0.125000    0.00195313  26 t-inv F
  0.375000 -0.375000  0.125000    0.00195313  26 t-inv F
 -0.125000 -0.375000  0.375000    0.00195313  26 t-inv F
  0.125000  0.375000 -0.375000    0.00195313  26 t-inv F
  0.375000  0.250000  0.750000    0.00195313  26 t-inv F
 -0.375000 -0.250000 -0.750000    0.00195313  26 t-inv F
 -0.375000 -0.750000 -0.500000    0.00195313  26 t-inv F
  0.375000  0.750000  0.500000    0.00195313  26 t-inv F
  0.125000  0.500000 -0.250000    0.00195313  26 t-inv F
 -0.125000 -0.500000  0.250000    0.00195313  26 t-inv F
  0.250000 -0.500000 -0.125000    0.00195313  26 t-inv F
 -0.250000  0.500000  0.125000    0.00195313  26 t-inv F
 -0.750000 -0.250000 -0.375000    0.00195313  26 t-inv F
  0.750000  0.250000  0.375000    0.00195313  26 t-inv F
  0.500000  0.750000  0.375000    0.00195313  26 t-inv F
 -0.500000 -0.750000 -0.375000    0.00195313  26 t-inv F
 -0.500000 -0.375000 -0.750000    0.00195313  26 t-inv F
  0.500000  0.375000  0.750000    0.00195313  26 t-inv F
 -0.250000  0.125000  0.500000    0.00195313  26 t-inv F
  0.250000 -0.125000 -0.500000    0.00195313  26 t-inv F
  0.750000  0.375000  0.250000    0.00195313  26 t-inv F
 -0.750000 -0.375000 -0.250000    0.00195313  26 t-inv F
 -0.125000  0.250000 -0.500000    0.00195313  26 t-inv F
  0.125000 -0.250000  0.500000    0.00195313  26 t-inv F
 -0.375000 -0.750000 -0.250000    0.00195313  26 t-inv F
  0.375000  0.750000  0.250000    0.00195313  26 t-inv F
  0.375000  0.500000  0.750000    0.00195313  26 t-inv F
 -0.375000 -0.500000 -0.750000    0.00195313  26 t-inv F
 -0.750000 -0.500000 -0.375000    0.00195313  26 t-inv F
  0.750000  0.500000  0.375000    0.00195313  26 t-inv F
  0.500000 -0.250000  0.125000    0.00195313  26 t-inv F
 -0.500000  0.250000 -0.125000    0.00195313  26 t-inv F
  0.250000  0.750000  0.375000    0.00195313  26 t-inv F
 -0.250000 -0.750000 -0.375000    0.00195313  26 t-inv F
 -0.500000 -0.125000  0.250000    0.00195313  26 t-inv F
  0.500000  0.125000 -0.250000    0.00195313  26 t-inv F
 -0.250000 -0.375000 -0.750000    0.00195313  26 t-inv F
  0.250000  0.375000  0.750000    0.00195313  26 t-inv F
  0.750000  0.375000  0.500000    0.00195313  26 t-inv F
 -0.750000 -0.375000 -0.500000    0.00195313  26 t-inv F
  0.250000 -0.375000 -0.125000    0.00195313  27 t-inv F
  0.125000 -0.250000  0.375000    0.00195313  27 t-inv F
 -0.125000  0.250000 -0.375000    0.00195313  27 t-inv F
  0.375000  0.125000 -0.250000    0.00195313  27 t-inv F
 -0.375000 -0.125000  0.250000    0.00195313  27 t-inv F
  0.250000 -0.125000 -0.375000    0.00195313  27 t-inv F
 -0.250000  0.125000  0.375000    0.00195313  27 t-inv F
 -0.375000  0.250000 -0.125000    0.00195313  27 t-inv F
  0.375000 -0.250000  0.125000    0.00195313  27 t-inv F
 -0.125000 -0.375000  0.250000    0.00195313  27 t-inv F
  0.125000  0.375000 -0.250000    0.00195313  27 t-inv F
  0.375000  0.250000  0.625000    0.00195313  27 t-inv F
 -0.375000 -0.250000 -0.625000    0.00195313  27 t-inv F
 -0.250000 -0.625000 -0.375000    0.00195313  27 t-inv F
  0.250000  0.625000  0.375000    0.00195313  27 t-inv F
 -0.625000 -0.250000 -0.375000    0.00195313  27 t-inv F
  0.625000  0.250000  0.375000    0.00195313  27 t-inv F
  0.375000  0.625000  0.250000    0.00195313  27 t-inv F
 -0.375000 -0.625000 -0.250000    0.00195313  27 t-inv F
  0.625000  0.375000  0.250000    0.00195313  27 t-inv F
 -0.625000 -0.375000 -0.250000    0.00195313  27 t-inv F
  0.250000  0.375000  0.625000    0.00195313  27 t-inv F
 -0.250000 -0.375000 -0.625000    0.00195313  27 t-inv F
  0.375000 -0.500000 -0.125000    0.00195313  28 t-inv F
  0.125000 -0.375000  0.500000    0.00195313  28 t-inv F
 -0.125000  0.375000 -0.500000    0.00195313  28 t-inv F
  0.500000  0.125000 -0.375000    0.00195313  28 t-inv F
 -0.500000 -0.125000  0.375000    0.00195313  28 t-inv F
  0.375000 -0.125000 -0.500000    0.00195313  28 t-inv F
 -0.375000  0.125000  0.500000    0.00195313  28 t-inv F
 -0.500000  0.375000 -0.125000    0.00195313  28 t-inv F
  0.500000 -0.375000  0.125000    0.00195313  28 t-inv F
 -0.125000 -0.500000  0.375000    0.00195313  28 t-inv F
  0.125000  0.500000 -0.375000    0.00195313  28 t-inv F
  0.250000 -0.500000 -0.250000    0.00195313  29 t-inv F
  0.250000 -0.250000  0.500000    0.00195313  29 t-inv F
 -0.250000  0.250000 -0.500000    0.00195313  29 t-inv F
  0.500000  0.250000 -0.250000    0.00195313  29 t-inv F
 -0.500000 -0.250000  0.250000    0.00195313  29 t-inv F


--------------------------------------------------------------------------------------------------------




 Dimension of arrays:
   k-points           NKPTS =    129   k-points in BZ     NKDIM =    612   number of bands    NBANDS=     18
   number of dos      NEDOS =   1000   number of ions     NIONS =      2
   non local maximal  LDIM  =      6   non local SUM 2l+1 LMDIM =     18
   total plane-waves  NPLWV =   8000
   max r-space proj   IRMAX =      1   max aug-charges    IRDMAX=  52837
   dimension x,y,z NGX =    20 NGY =   20 NGZ =   20
   dimension x,y,z NGXF=    40 NGYF=   40 NGZF=   40
   support grid    NGXF=    80 NGYF=   80 NGZF=   80
   ions per type =               2
   NGX,Y,Z   is equivalent  to a cutoff of   8.60,  8.60,  8.60 a.u.
   NGXF,Y,Z  is equivalent  to a cutoff of  17.20, 17.20, 17.20 a.u.

 SYSTEM =  unknown system                          
 POSCAR =  cubic diamond Ge                        

 Startparameter for this run:
   NWRITE =      2    write-flag & timer
   PREC   = normal    normal or accurate (medium, high low for compatibility)
   ISTART =      1    job   : 0-new  1-cont  2-samecut
   ICHARG =      0    charge: 1-file 2-atom 10-const
   ISPIN  =      1    spin polarized calculation?
   LNONCOLLINEAR =      F non collinear calculations
   LSORBIT =      F    spin-orbit coupling
   INIWAV =      1    electr: 0-lowe 1-rand  2-diag
   LASPH  =      F    aspherical Exc in radial PAW
 Electronic Relaxation 1
   ENCUT  =  450.0 eV  33.07 Ry    5.75 a.u.   6.69  6.69  6.69*2*pi/ulx,y,z
   ENINI  =  450.0     initial cutoff
   ENAUG  =  531.4 eV  augmentation charge cutoff
   NELM   =     60;   NELMIN=  2; NELMDL=  0     # of ELM steps 
   EDIFF  = 0.1E-05   stopping-criterion for ELM
   LREAL  =      F    real-space projection
   NLSPLINE    = F    spline interpolate recip. space projectors
   LCOMPAT=      F    compatible to vasp.4.4
   GGA_COMPAT  = T    GGA compatible to vasp.4.4-vasp.4.6
   LMAXPAW     = -100 max onsite density
   LMAXMIX     =    2 max onsite mixed and CHGCAR
   VOSKOWN=      0    Vosko Wilk Nusair interpolation
   ROPT   =    0.00000
 Ionic relaxation
   EDIFFG = 0.1E-04   stopping-criterion for IOM
   NSW    =      0    number of steps for IOM
   NBLOCK =      1;   KBLOCK =      1    inner block; outer block 
   IBRION =     -1    ionic relax: 0-MD 1-quasi-New 2-CG
   NFREE  =      0    steps in history (QN), initial steepest desc. (CG)
   ISIF   =      0    stress and relaxation
   IWAVPR =     10    prediction:  0-non 1-charg 2-wave 3-comb
   ISYM   =      3    0-nonsym 1-usesym 2-fastsym
   LCORR  =      T    Harris-Foulkes like correction to forces

   POTIM  = 0.5000    time-step for ionic-motion
   TEIN   =    0.0    initial temperature
   TEBEG  =    0.0;   TEEND  =   0.0 temperature during run
   SMASS  =  -3.00    Nose mass-parameter (am)
   estimated Nose-frequenzy (Omega)   =  0.10E-29 period in steps = 0.13E+47 mass=  -0.342E-27a.u.
   SCALEE = 1.0000    scale energy and forces
   NPACO  =    256;   APACO  = 10.0  distance and # of slots for P.C.
   PSTRESS=    0.0 pullay stress

  Mass of Ions in am
   POMASS =  72.61
  Ionic Valenz
   ZVAL   =  14.00
  Atomic Wigner-Seitz radii
   RWIGS  =  -1.00
  virtual crystal weights 
   VCA    =   1.00
   NELECT =      28.0000    total number of electrons
   NUPDOWN=      -1.0000    fix difference up-down

 DOS related values:
   EMIN   =  10.00;   EMAX   =-10.00  energy-range for DOS
   EFERMI =   0.00
   ISMEAR =     0;   SIGMA  =   0.05  broadening in eV -4-tet -1-fermi 0-gaus

 Electronic relaxation 2 (details)
   IALGO  =     58    algorithm
   LDIAG  =      T    sub-space diagonalisation (order eigenvalues)
   LSUBROT=      F    optimize rotation matrix (better conditioning)
   TURBO    =      0    0=normal 1=particle mesh
   IRESTART =      0    0=no restart 2=restart with 2 vectors
   NREBOOT  =      0    no. of reboots
   NMIN     =      0    reboot dimension
   EREF     =   0.00    reference energy to select bands
   IMIX   =      4    mixing-type and parameters
     AMIX     =   0.40;   BMIX     =  1.00
     AMIX_MAG =   1.60;   BMIX_MAG =  1.00
     AMIN     =   0.10
     WC   =   100.;   INIMIX=   1;  MIXPRE=   1;  MAXMIX= -45

 Intra band minimization:
   WEIMIN = 0.0000     energy-eigenvalue tresh-hold
   EBREAK =  0.14E-07  absolut break condition
   DEPER  =   0.30     relativ break condition  

   TIME   =   0.40     timestep for ELM

  volume/ion in A,a.u.               =      20.44       137.96
  Fermi-wavevector in a.u.,A,eV,Ry     =   1.443011  2.726896 28.331157  2.082281
  Thomas-Fermi vector in A             =   2.561467
 
 Write flags
   LWAVE        =      T    write WAVECAR
   LDOWNSAMPLE  =      F    k-point downsampling of WAVECAR
   LCHARG       =      T    write CHGCAR
   LVTOT        =      F    write LOCPOT, total local potential
   LVHAR        =      F    write LOCPOT, Hartree potential only
   LELF         =      F    write electronic localiz. function (ELF)
   LORBIT       =     11    0 simple, 1 ext, 2 COOP (PROOUT), +10 PAW based schemes


 Dipole corrections
   LMONO  =      F    monopole corrections only (constant potential shift)
   LDIPOL =      F    correct potential (dipole corrections)
   IDIPOL =      0    1-x, 2-y, 3-z, 4-all directions 
   EPSILON=  1.0000000 bulk dielectric constant

 Exchange correlation treatment:
   GGA     =    --    GGA type
   LEXCH   =     8    internal setting for exchange type
   LIBXC   =     F    Libxc                    
   VOSKOWN =     0    Vosko Wilk Nusair interpolation
   EXXOEP  =     0    0=HF, 1=EXX-LHF (local Hartree Fock) 2=EXX OEP
   LHFCALC =     T    Hartree Fock is set to
   LSYMGRAD=     F    symmetrize gradient (conserves proper symmetry)
   PRECFOCK=normal    Normal, Fast or Accurate (Low or Medium for compatibility)
   LRHFCALC=     F    long range Hartree Fock
   LRSCOR  =     F    long range correlation only (use DFT for short range part)
   LTHOMAS =     F    Thomas Fermi screening in HF
   LMODELHF=     F    short range full HF, long range fraction AEXX
   FOCKCORR=     1    mode to apply convergence corrections
   LFOCKACE=     T    use Adeptively-Compressed-Exchange operator
   ENCUT4O =  -1.0   cutoff for four orbital integrals eV
   LMAXFOCK=     4    L truncation for augmentation on plane wave grid
   LMAXFOCKAE=  -1    L truncation for all-electron charge restoration on plane wave grid
   NMAXFOCKAE=   1    number of basis functions for all-electron charge restoration
   LFOCKAEDFT=     F  apply the AE augmentation even for DFT
   NKREDX  =     1    reduce k-point grid by
   NKREDY  =     1    reduce k-point grid by
   NKREDZ  =     1    reduce k-point grid by
   SHIFTRED=     F    shift reduced grid of Gamma
   HFKIDENT=     F    idential grid for each k-point
   ODDONLY =     F    use only odd q-grid points
   EVENONLY=     F    use only even q-grid points
   HFALPHA =   -1.0000 decay constant for conv. correction
   MCALPHA =    0.0000 extent of test-charge in conv. correction in multipole expansion
   AEXX    =    0.2500 exact exchange contribution
   HFSCREEN=    0.2000 screening length (either q_TF or 0.3 A-1)
   HFSCREENC=   0.2000 screening length for correlation (either q_TF or 0.3 A-1)
   HFRCUT  =    0.0000 spherical cutoff for potential kernel
   ALDAX   =    0.7500 LDA exchange part
   AGGAX   =    0.7500 GGA exchange part
   ALDAC   =    1.0000 LDA correlation
   AGGAC   =    1.0000 GGA correlation
   ENCUTFOCK=  -1.0 apply spherical cutoff to Coloumb kernel
   NBANDSGWLOW=     1    first orbital included in HF term
   NBLOCK_FOCK=    64    blocking factor in FOCK_ACC

 Linear response parameters
   LEPSILON=     F    determine dielectric tensor
   LRPA    =     F    only Hartree local field effects (RPA)
   LNABLA  =     F    use nabla operator in PAW spheres
   LVEL    =     F    velocity operator in full k-point grid
   CSHIFT  =0.1000    complex shift for real part using Kramers Kronig
   OMEGAMAX=  -1.0    maximum frequency
   DEG_THRESHOLD= 0.2000000E-02 threshold for treating states as degnerate
   RTIME   =   -0.100 relaxation time in fs
  (WPLASMAI=    0.000 imaginary part of plasma frequency in eV, 0.658/RTIME)
   DFIELD  = 0.0000000 0.0000000 0.0000000 field for delta impulse in time
 
  Optional k-point grid parameters
   LKPOINTS_OPT  =     F    use optional k-point grid
   KPOINTS_OPT_MODE=     1    mode for optional k-point grid
 
 Orbital magnetization related:
   ORBITALMAG=     F  switch on orbital magnetization
   LCHIMAG   =     F  perturbation theory with respect to B field
   DQ        =  0.001000  dq finite difference perturbation B field
   LLRAUG    =     F  two centre corrections for induced B field



--------------------------------------------------------------------------------------------------------


 Static calculation
 charge density and potential will be updated during run
 non-spin polarized calculation
 Conjugate gradient for all bands (Freysoldt, et al. PRB 79, 241103 (2009))
 preconditioned conjugated gradient                                        
 perform sub-space diagonalisation
    before iterative eigenvector-optimisation
 modified Broyden-mixing scheme, WC =      100.0
 initial mixing is a Kerker type mixing with AMIX =  0.4000 and BMIX =      1.0000
 Hartree-type preconditioning will be used
 using additional bands             4
 reciprocal scheme for non local part
 use partial core corrections
 no Harris-corrections to forces 
 use gradient corrections 
 use of overlap-Matrix (Vanderbilt PP)
 Gauss-broadening in eV      SIGMA  =   0.05


--------------------------------------------------------------------------------------------------------


  energy-cutoff  :      450.00
  volume of cell :       40.89
      direct lattice vectors                 reciprocal lattice vectors
     0.000000000  2.734310366  2.734310366    -0.182861465  0.182861465  0.182861465
     2.734310366  0.000000000  2.734310366     0.182861465 -0.182861465  0.182861465
     2.734310366  2.734310366  0.000000000     0.182861465  0.182861465 -0.182861465

  length of vectors
     3.866898804  3.866898804  3.866898804     0.316725349  0.316725349  0.316725349


 
 old parameters found on file WAVECAR:
  energy-cutoff  :      450.00
  volume of cell :       40.89
      direct lattice vectors                 reciprocal lattice vectors
     0.000000000  2.734310366  2.734310366    -0.182861465  0.182861465  0.182861465
     2.734310366  0.000000000  2.734310366     0.182861465 -0.182861465  0.182861465
     2.734310366  2.734310366  0.000000000     0.182861465  0.182861465 -0.182861465

  length of vectors

 
 k-points in units of 2pi/SCALE and weight: 0.040   8   8   8   29  0.050  100    6 
   0.00000000  0.00000000  0.00000000       0.002
  -0.12931826  0.12931826  0.12931826       0.016
  -0.25863651  0.25863651  0.25863651       0.016
  -0.38795477  0.38795477  0.38795477       0.016
  -0.51727303  0.51727303  0.51727303       0.008
   0.00000000  0.00000000  0.25863651       0.012
  -0.12931826  0.12931826  0.38795477       0.047
  -0.25863651  0.25863651  0.51727303       0.047
  -0.38795477  0.38795477  0.64659128       0.047
   0.51727303 -0.51727303 -0.25863651       0.047
   0.38795477 -0.38795477 -0.12931826       0.047
   0.25863651 -0.25863651  0.00000000       0.023
   0.00000000  0.00000000  0.51727303       0.012
  -0.12931826  0.12931826  0.64659128       0.047
  -0.25863651  0.25863651  0.77590954       0.047
   0.64659128 -0.64659128 -0.12931826       0.047
   0.51727303 -0.51727303  0.00000000       0.023
   0.00000000 -0.00000000  0.77590954       0.012
  -0.12931826  0.12931826  0.90522780       0.047
   0.77590954 -0.77590954  0.00000000       0.023
   0.00000000  0.00000000  1.03454605       0.006
   0.00000000  0.25863651  0.51727303       0.047
  -0.12931826  0.38795477  0.64659128       0.094
   0.77590954 -0.51727303 -0.25863651       0.047
   0.00000000  0.25863651  0.77590954       0.047
   0.90522780 -0.64659128 -0.12931826       0.094
   0.77590954 -0.51727303  0.00000000       0.047
   1.03454605 -0.77590954  0.00000000       0.023
   1.03454605 -0.51727303  0.00000000       0.012
   0.00000000  0.00000000  0.00000000       0.000
  -0.00000000  0.04926410  0.00000000       0.000
   0.00000000  0.09852820 -0.00000000       0.000
  -0.00000000  0.14779229  0.00000000       0.000
   0.00000000  0.19705639 -0.00000000       0.000
   0.00000000  0.24632049 -0.00000000       0.000
  -0.00000000  0.29558459  0.00000000       0.000
   0.00000000  0.34484868 -0.00000000       0.000
   0.00000000  0.39411278 -0.00000000       0.000
   0.00000000  0.44337688 -0.00000000       0.000
   0.00000000  0.49264098 -0.00000000       0.000
   0.00000000  0.54190508 -0.00000000       0.000
   0.00000000  0.59116917 -0.00000000       0.000
  -0.00000000  0.64043327  0.00000000       0.000
  -0.00000000  0.68969737  0.00000000       0.000
   0.00000000  0.73896147 -0.00000000       0.000
   0.00000000  0.78822556 -0.00000000       0.000
   0.00000000  0.83748966 -0.00000000       0.000
  -0.00000000  0.88675376  0.00000000       0.000
  -0.00000000  0.93601786  0.00000000       0.000
   0.00000000  0.98528196 -0.00000000       0.000
   0.00000000  1.03454605  0.00000000       0.000
   0.00000000  1.03454605  0.00000000       0.000
   0.03694807  1.03454605  0.03694807       0.000
   0.07389615  1.03454605  0.07389615       0.000
   0.11084422  1.03454605  0.11084422       0.000
   0.14779229  1.03454605  0.14779229       0.000
   0.18474037  1.03454605  0.18474037       0.000
   0.22168844  1.03454605  0.22168844       0.000
   0.25863651  1.03454605  0.25863651       0.000
   0.77590954  0.77590954 -0.00000000       0.000
   0.74217434  0.74217434 -0.00000000       0.000
   0.70843915  0.70843915  0.00000000       0.000
   0.67470395  0.67470395  0.00000000       0.000
   0.64096875  0.64096875 -0.00000000       0.000
   0.60723355  0.60723355  0.00000000       0.000
   0.57349836  0.57349836 -0.00000000       0.000
   0.53976316  0.53976316 -0.00000000       0.000
   0.50602796  0.50602796 -0.00000000       0.000
   0.47229276  0.47229276  0.00000000       0.000
   0.43855757  0.43855757 -0.00000000       0.000
   0.40482237  0.40482237 -0.00000000       0.000
   0.37108717  0.37108717  0.00000000       0.000
   0.33735197  0.33735197  0.00000000       0.000
   0.30361678  0.30361678 -0.00000000       0.000
   0.26988158  0.26988158  0.00000000       0.000
   0.23614638  0.23614638  0.00000000       0.000
   0.20241118  0.20241118  0.00000000       0.000
   0.16867599  0.16867599 -0.00000000       0.000
   0.13494079  0.13494079  0.00000000       0.000
   0.10120559  0.10120559  0.00000000       0.000
   0.06747039  0.06747039 -0.00000000       0.000
   0.03373520  0.03373520  0.00000000       0.000
   0.00000000  0.00000000  0.00000000       0.000
   0.00000000  0.00000000  0.00000000       0.000
   0.02873739  0.02873739  0.02873739       0.000
   0.05747478  0.05747478  0.05747478       0.000
   0.08621217  0.08621217  0.08621217       0.000
   0.11494956  0.11494956  0.11494956       0.000
   0.14368695  0.14368695  0.14368695       0.000
   0.17242434  0.17242434  0.17242434       0.000
   0.20116173  0.20116173  0.20116173       0.000
   0.22989912  0.22989912  0.22989912       0.000
   0.25863651  0.25863651  0.25863651       0.000
   0.28737390  0.28737390  0.28737390       0.000
   0.31611129  0.31611129  0.31611129       0.000
   0.34484868  0.34484868  0.34484868       0.000
   0.37358608  0.37358608  0.37358608       0.000
   0.40232347  0.40232347  0.40232347       0.000
   0.43106086  0.43106086  0.43106086       0.000
   0.45979825  0.45979825  0.45979825       0.000
   0.48853564  0.48853564  0.48853564       0.000
   0.51727303  0.51727303  0.51727303       0.000
   0.51727303  0.51727303  0.51727303       0.000
   0.51727303  0.55175790  0.48278816       0.000
   0.51727303  0.58624276  0.44830329       0.000
   0.51727303  0.62072763  0.41381842       0.000
   0.51727303  0.65521250  0.37933355       0.000
   0.51727303  0.68969737  0.34484868       0.000
   0.51727303  0.72418224  0.31036382       0.000
   0.51727303  0.75866711  0.27587895       0.000
   0.51727303  0.79315197  0.24139408       0.000
   0.51727303  0.82763684  0.20690921       0.000
   0.51727303  0.86212171  0.17242434       0.000
   0.51727303  0.89660658  0.13793947       0.000
   0.51727303  0.93109145  0.10345461       0.000
   0.51727303  0.96557632  0.06896974       0.000
   0.51727303  1.00006119  0.03448487       0.000
   0.51727303  1.03454605 -0.00000000       0.000
   0.51727303  1.03454605 -0.00000000       0.000
   0.46554572  1.03454605  0.00000000       0.000
   0.41381842  1.03454605 -0.00000000       0.000
   0.36209112  1.03454605 -0.00000000       0.000
   0.31036382  1.03454605  0.00000000       0.000
   0.25863651  1.03454605  0.00000000       0.000
   0.20690921  1.03454605  0.00000000       0.000
   0.15518191  1.03454605  0.00000000       0.000
   0.10345461  1.03454605 -0.00000000       0.000
   0.05172730  1.03454605 -0.00000000       0.000
   0.00000000  1.03454605  0.00000000       0.000
 
 k-points in reciprocal lattice and weights: 0.040   8   8   8   29  0.050  100    6 
   0.00000000  0.00000000  0.00000000       0.002
   0.12500000  0.00000000  0.00000000       0.016
   0.25000000  0.00000000  0.00000000       0.016
   0.37500000  0.00000000  0.00000000       0.016
   0.50000000  0.00000000  0.00000000       0.008
   0.12500000  0.12500000  0.00000000       0.012
   0.25000000  0.12500000  0.00000000       0.047
   0.37500000  0.12500000  0.00000000       0.047
   0.50000000  0.12500000  0.00000000       0.047
  -0.37500000  0.12500000  0.00000000       0.047
  -0.25000000  0.12500000  0.00000000       0.047
  -0.12500000  0.12500000  0.00000000       0.023
   0.25000000  0.25000000  0.00000000       0.012
   0.37500000  0.25000000  0.00000000       0.047
   0.50000000  0.25000000  0.00000000       0.047
  -0.37500000  0.25000000  0.00000000       0.047
  -0.25000000  0.25000000  0.00000000       0.023
   0.37500000  0.37500000  0.00000000       0.012
   0.50000000  0.37500000  0.00000000       0.047
  -0.37500000  0.37500000  0.00000000       0.023
   0.50000000  0.50000000  0.00000000       0.006
   0.37500000  0.25000000  0.12500000       0.047
   0.50000000  0.25000000  0.12500000       0.094
  -0.37500000  0.25000000  0.12500000       0.047
   0.50000000  0.37500000  0.12500000       0.047
  -0.37500000  0.37500000  0.12500000       0.094
  -0.25000000  0.37500000  0.12500000       0.047
  -0.37500000  0.50000000  0.12500000       0.023
  -0.25000000  0.50000000  0.25000000       0.012
   0.00000000  0.00000000  0.00000000       0.000
   0.02380952  0.00000000  0.02380952       0.000
   0.04761905  0.00000000  0.04761905       0.000
   0.07142857  0.00000000  0.07142857       0.000
   0.09523810  0.00000000  0.09523810       0.000
   0.11904762  0.00000000  0.11904762       0.000
   0.14285714  0.00000000  0.14285714       0.000
   0.16666667  0.00000000  0.16666667       0.000
   0.19047619  0.00000000  0.19047619       0.000
   0.21428571  0.00000000  0.21428571       0.000
   0.23809524  0.00000000  0.23809524       0.000
   0.26190476  0.00000000  0.26190476       0.000
   0.28571429  0.00000000  0.28571429       0.000
   0.30952381  0.00000000  0.30952381       0.000
   0.33333333  0.00000000  0.33333333       0.000
   0.35714286  0.00000000  0.35714286       0.000
   0.38095238  0.00000000  0.38095238       0.000
   0.40476190  0.00000000  0.40476190       0.000
   0.42857143  0.00000000  0.42857143       0.000
   0.45238095  0.00000000  0.45238095       0.000
   0.47619048  0.00000000  0.47619048       0.000
   0.50000000  0.00000000  0.50000000       0.000
   0.50000000  0.00000000  0.50000000       0.000
   0.51785714  0.03571429  0.51785714       0.000
   0.53571429  0.07142857  0.53571429       0.000
   0.55357143  0.10714286  0.55357143       0.000
   0.57142857  0.14285714  0.57142857       0.000
   0.58928571  0.17857143  0.58928571       0.000
   0.60714286  0.21428571  0.60714286       0.000
   0.62500000  0.25000000  0.62500000       0.000
   0.37500000  0.37500000  0.75000000       0.000
   0.35869565  0.35869565  0.71739130       0.000
   0.34239130  0.34239130  0.68478261       0.000
   0.32608696  0.32608696  0.65217391       0.000
   0.30978261  0.30978261  0.61956522       0.000
   0.29347826  0.29347826  0.58695652       0.000
   0.27717391  0.27717391  0.55434783       0.000
   0.26086957  0.26086957  0.52173913       0.000
   0.24456522  0.24456522  0.48913043       0.000
   0.22826087  0.22826087  0.45652174       0.000
   0.21195652  0.21195652  0.42391304       0.000
   0.19565217  0.19565217  0.39130435       0.000
   0.17934783  0.17934783  0.35869565       0.000
   0.16304348  0.16304348  0.32608696       0.000
   0.14673913  0.14673913  0.29347826       0.000
   0.13043478  0.13043478  0.26086957       0.000
   0.11413043  0.11413043  0.22826087       0.000
[...]
     11      -5.5198      2.00000
     12      -3.2499      2.00000
     13       0.6630      2.00000
     14       2.1813      2.00000
     15       9.8526      0.00000
     16      10.0291      0.00000
     17      13.3914      0.00000
     18      15.2033      0.00000

 k-point   114 :       0.5000    0.3167    0.6833
  band No.  band energies     occupation 
      1     -22.4638      2.00000
      2     -22.4522      2.00000
      3     -22.3142      2.00000
      4     -22.2485      2.00000
      5     -22.2275      2.00000
      6     -22.2126      2.00000
      7     -22.1767      2.00000
      8     -22.1397      2.00000
      9     -22.0005      2.00000
     10     -21.9895      2.00000
     11      -5.3003      2.00000
     12      -3.3947      2.00000
     13       0.5673      2.00000
     14       1.8956      2.00000
     15      10.1286      0.00000
     16      10.2032      0.00000
     17      12.8167      0.00000
     18      16.0075      0.00000

 k-point   115 :       0.5000    0.3000    0.7000
  band No.  band energies     occupation 
      1     -22.4639      2.00000
      2     -22.4548      2.00000
      3     -22.3064      2.00000
      4     -22.2482      2.00000
      5     -22.2326      2.00000
      6     -22.2023      2.00000
      7     -22.1840      2.00000
      8     -22.1458      2.00000
      9     -21.9978      2.00000
     10     -21.9891      2.00000
     11      -5.0656      2.00000
     12      -3.5821      2.00000
     13       0.5537      2.00000
     14       1.6180      2.00000
     15      10.4142      0.00000
     16      10.4191      0.00000
     17      12.4071      0.00000
     18      16.8850      0.00000

 k-point   116 :       0.5000    0.2833    0.7167
  band No.  band energies     occupation 
      1     -22.4633      2.00000
      2     -22.4570      2.00000
      3     -22.2978      2.00000
      4     -22.2573      2.00000
      5     -22.2275      2.00000
      6     -22.1980      2.00000
      7     -22.1857      2.00000
      8     -22.1527      2.00000
      9     -21.9954      2.00000
     10     -21.9894      2.00000
     11      -4.8185      2.00000
     12      -3.8032      2.00000
     13       0.6133      2.00000
     14       1.3555      2.00000
     15      10.6609      0.00000
     16      10.7233      0.00000
     17      12.0276      0.00000
     18      17.5160      0.00000

 k-point   117 :       0.5000    0.2667    0.7333
  band No.  band energies     occupation 
      1     -22.4623      2.00000
      2     -22.4591      2.00000
      3     -22.2886      2.00000
      4     -22.2681      2.00000
      5     -22.2200      2.00000
      6     -22.2041      2.00000
      7     -22.1779      2.00000
      8     -22.1605      2.00000
      9     -21.9933      2.00000
     10     -21.9902      2.00000
     11      -4.5626      2.00000
     12      -4.0471      2.00000
     13       0.7344      2.00000
     14       1.1153      2.00000
     15      10.9379      0.00000
     16      11.0463      0.00000
     17      11.6714      0.00000
     18      17.2063      0.00000

 k-point   118 :       0.5000    0.2500    0.7500
  band No.  band energies     occupation 
      1     -22.4609      2.00000
      2     -22.4609      2.00000
      3     -22.2787      2.00000
      4     -22.2787      2.00000
      5     -22.2120      2.00000
      6     -22.2120      2.00000
      7     -22.1690      2.00000
      8     -22.1690      2.00000
      9     -21.9916      2.00000
     10     -21.9916      2.00000
     11      -4.3032      2.00000
     12      -4.3032      2.00000
     13       0.9052      2.00000
     14       0.9052      2.00000
     15      11.2141      0.00000
     16      11.3453      0.00000
     17      11.4020      0.00000
     18      16.2717      0.00000

 k-point   119 :       0.5000    0.2500    0.7500
  band No.  band energies     occupation 
      1     -22.4609      2.00000
      2     -22.4609      2.00000
      3     -22.2787      2.00000
      4     -22.2787      2.00000
      5     -22.2120      2.00000
      6     -22.2120      2.00000
      7     -22.1690      2.00000
      8     -22.1690      2.00000
      9     -21.9916      2.00000
     10     -21.9916      2.00000
     11      -4.3032      2.00000
     12      -4.3032      2.00000
     13       0.9052      2.00000
     14       0.9052      2.00000
     15      11.2141      0.00000
     16      11.3453      0.00000
     17      11.4020      0.00000
     18      16.2717      0.00000

 k-point   120 :       0.5000    0.2250    0.7250
  band No.  band energies     occupation 
      1     -22.4605      2.00000
      2     -22.4605      2.00000
      3     -22.2805      2.00000
      4     -22.2805      2.00000
      5     -22.2111      2.00000
      6     -22.2111      2.00000
      7     -22.1679      2.00000
      8     -22.1679      2.00000
      9     -21.9919      2.00000
     10     -21.9919      2.00000
     11      -4.3073      2.00000
     12      -4.3073      2.00000
     13       0.9262      2.00000
     14       0.9262      2.00000
     15      10.6201      0.00000
     16      10.6348      0.00000
     17      12.0217      0.00000
     18      17.9425      0.00000

 k-point   121 :       0.5000    0.2000    0.7000
  band No.  band energies     occupation 
      1     -22.4594      2.00000
      2     -22.4594      2.00000
      3     -22.2857      2.00000
      4     -22.2857      2.00000
      5     -22.2090      2.00000
      6     -22.2090      2.00000
      7     -22.1650      2.00000
      8     -22.1650      2.00000
      9     -21.9929      2.00000
     10     -21.9929      2.00000
     11      -4.3190      2.00000
     12      -4.3190      2.00000
     13       0.9878      2.00000
     14       0.9878      2.00000
     15       9.9718      0.00000
     16       9.9730      0.00000
     17      12.7470      0.00000
     18      18.6863      0.00000

 k-point   122 :       0.5000    0.1750    0.6750
  band No.  band energies     occupation 
      1     -22.4577      2.00000
      2     -22.4577      2.00000
      3     -22.2930      2.00000
      4     -22.2930      2.00000
      5     -22.2066      2.00000
      6     -22.2066      2.00000
      7     -22.1603      2.00000
      8     -22.1603      2.00000
      9     -21.9946      2.00000
     10     -21.9946      2.00000
     11      -4.3371      2.00000
     12      -4.3371      2.00000
     13       1.0864      2.00000
     14       1.0864      2.00000
     15       9.3568      0.00000
     16       9.3568      0.00000
     17      13.4906      0.00000
     18      18.8482      0.00000

 k-point   123 :       0.5000    0.1500    0.6500
  band No.  band energies     occupation 
      1     -22.4554      2.00000
      2     -22.4553      2.00000
      3     -22.3013      2.00000
      4     -22.3013      2.00000
      5     -22.2045      2.00000
      6     -22.2045      2.00000
      7     -22.1541      2.00000
      8     -22.1541      2.00000
      9     -21.9967      2.00000
     10     -21.9967      2.00000
     11      -4.3594      2.00000
     12      -4.3594      2.00000
     13       1.2159      2.00000
     14       1.2159      2.00000
     15       8.7826      0.00000
     16       8.7827      0.00000
     17      14.2444      0.00000
     18      18.5661      0.00000

 k-point   124 :       0.5000    0.1250    0.6250
  band No.  band energies     occupation 
      1     -22.4526      2.00000
      2     -22.4526      2.00000
      3     -22.3098      2.00000
      4     -22.3098      2.00000
      5     -22.2029      2.00000
      6     -22.2029      2.00000
      7     -22.1474      2.00000
      8     -22.1474      2.00000
      9     -21.9992      2.00000
     10     -21.9992      2.00000
     11      -4.3835      2.00000
     12      -4.3835      2.00000
     13       1.3673      2.00000
     14       1.3674      2.00000
     15       8.2579      0.00000
     16       8.2579      0.00000
     17      14.9987      0.00000
     18      18.3211      0.00000

 k-point   125 :       0.5000    0.1000    0.6000
  band No.  band energies     occupation 
      1     -22.4496      2.00000
      2     -22.4496      2.00000
      3     -22.3179      2.00000
      4     -22.3179      2.00000
      5     -22.2017      2.00000
      6     -22.2017      2.00000
      7     -22.1406      2.00000
      8     -22.1406      2.00000
      9     -22.0019      2.00000
     10     -22.0019      2.00000
     11      -4.4072      2.00000
     12      -4.4072      2.00000
     13       1.5290      2.00000
     14       1.5290      2.00000
     15       7.7932      0.00000
     16       7.7932      0.00000
     17      15.7366      0.00000
     18      18.1800      0.00000

 k-point   126 :       0.5000    0.0750    0.5750
  band No.  band energies     occupation 
      1     -22.4468      2.00000
      2     -22.4468      2.00000
      3     -22.3251      2.00000
      4     -22.3251      2.00000
      5     -22.2011      2.00000
      6     -22.2011      2.00000
      7     -22.1345      2.00000
      8     -22.1345      2.00000
      9     -22.0046      2.00000
     10     -22.0046      2.00000
     11      -4.4281      2.00000
     12      -4.4281      2.00000
     13       1.6857      2.00000
     14       1.6857      2.00000
     15       7.4025      0.00000
     16       7.4025      0.00000
     17      16.4490      0.00000
     18      18.1895      0.00000

 k-point   127 :       0.5000    0.0500    0.5500
  band No.  band energies     occupation 
      1     -22.4444      2.00000
      2     -22.4444      2.00000
      3     -22.3307      2.00000
      4     -22.3307      2.00000
      5     -22.2006      2.00000
      6     -22.2006      2.00000
      7     -22.1297      2.00000
      8     -22.1297      2.00000
      9     -22.0068      2.00000
     10     -22.0068      2.00000
     11      -4.4444      2.00000
     12      -4.4444      2.00000
     13       1.8192      2.00000
     14       1.8192      2.00000
     15       7.1027      0.00000
     16       7.1027      0.00000
     17      17.0836      0.00000
     18      18.1783      0.00000

 k-point   128 :       0.5000    0.0250    0.5250
  band No.  band energies     occupation 
      1     -22.4426      2.00000
      2     -22.4426      2.00000
      3     -22.3343      2.00000
      4     -22.3343      2.00000
      5     -22.2003      2.00000
      6     -22.2003      2.00000
      7     -22.1265      2.00000
      8     -22.1265      2.00000
      9     -22.0082      2.00000
     10     -22.0082      2.00000
     11      -4.4547      2.00000
     12      -4.4547      2.00000
     13       1.9101      2.00000
     14       1.9101      2.00000
     15       6.9125      0.00000
     16       6.9125      0.00000
     17      17.5695      0.00000
     18      18.0776      0.00000

 k-point   129 :       0.5000    0.0000    0.5000
  band No.  band energies     occupation 
      1     -22.4420      2.00000
      2     -22.4420      2.00000
      3     -22.3356      2.00000
      4     -22.3356      2.00000
      5     -22.2003      2.00000
      6     -22.2003      2.00000
      7     -22.1253      2.00000
      8     -22.1253      2.00000
      9     -22.0088      2.00000
     10     -22.0088      2.00000
     11      -4.4582      2.00000
     12      -4.4582      2.00000
     13       1.9425      2.00000
     14       1.9425      2.00000
     15       6.8470      0.00000
     16       6.8470      0.00000
     17      17.8868      0.00000
     18      17.9800      0.00000


--------------------------------------------------------------------------------------------------------


 soft charge-density along one line, spin component            1
         0         1         2         3         4         5         6         7         8         9
 total charge-density along one line
 
 pseudopotential strength for first ion, spin component:            1
-18.719   0.000  -0.000   0.000   0.000   2.612  -0.000   0.000
  0.000 -18.719   0.000   0.000  -0.000  -0.000   2.612  -0.000
 -0.000   0.000 -18.716   0.000   0.000   0.000  -0.000   2.611
  0.000   0.000   0.000 -18.719   0.000  -0.000  -0.000  -0.000
  0.000  -0.000   0.000   0.000 -18.716  -0.000   0.000  -0.000
  2.612  -0.000   0.000  -0.000  -0.000   2.674   0.000  -0.000
 -0.000   2.612  -0.000  -0.000   0.000   0.000   2.674   0.000
  0.000  -0.000   2.611  -0.000  -0.000  -0.000   0.000   2.674
 -0.000  -0.000  -0.000   2.612  -0.000   0.000   0.000   0.000
 -0.000   0.000  -0.000  -0.000   2.611   0.000  -0.000   0.000
  0.000   0.000  -0.000   0.000  -0.000  -0.000  -0.000   0.000
  0.000   0.000  -0.000   0.000  -0.000  -0.000  -0.000   0.000
  0.000   0.000   0.000   0.004   0.000  -0.000  -0.000  -0.000
  0.004   0.000  -0.000   0.000   0.000  -0.002  -0.000   0.000
  0.000   0.004   0.000   0.000  -0.000  -0.000  -0.002  -0.000
  0.000   0.000   0.000   0.007   0.000  -0.000  -0.000  -0.000
  0.007   0.000  -0.000   0.000   0.000  -0.004  -0.000   0.000
  0.000   0.007   0.000   0.000  -0.000  -0.000  -0.004  -0.000
 total augmentation occupancy for first ion, spin component:            1
  1.997   0.000  -0.000   0.000   0.000   0.005   0.000  -0.000   0.000   0.000   0.000  -0.000   0.000   0.084   0.000  -0.000
  0.000   1.997   0.000   0.000  -0.000   0.000   0.005   0.000   0.000  -0.000   0.000  -0.000   0.000   0.000   0.084  -0.000
 -0.000   0.000   1.993   0.000  -0.000  -0.000   0.000  -0.007   0.000  -0.000   0.000  -0.000   0.000  -0.000  -0.000  -0.000
  0.000   0.000   0.000   1.997   0.000   0.000  -0.000   0.000   0.005   0.000   0.000  -0.000   0.084   0.000   0.000  -0.028
  0.000  -0.000  -0.000   0.000   1.993   0.000  -0.000   0.000   0.000  -0.007   0.000  -0.000   0.000  -0.000  -0.000   0.000
  0.005   0.000  -0.000   0.000   0.000   0.056   0.000  -0.000   0.000   0.000   0.000  -0.000   0.000   0.292  -0.000   0.000
  0.000   0.005   0.000  -0.000  -0.000   0.000   0.056   0.000   0.000  -0.000   0.000   0.000  -0.000  -0.000   0.292   0.000
 -0.000   0.000  -0.007   0.000   0.000  -0.000   0.000   0.016   0.000   0.000   0.000  -0.000   0.000  -0.000   0.000   0.000
  0.000   0.000   0.000   0.005   0.000   0.000   0.000   0.000   0.056  -0.000   0.000  -0.000   0.292   0.000   0.000  -0.057
  0.000  -0.000  -0.000   0.000  -0.007   0.000  -0.000   0.000  -0.000   0.016   0.000  -0.000   0.000  -0.000  -0.000  -0.000
  0.000   0.000   0.000   0.000   0.000   0.000   0.000   0.000   0.000   0.000   5.417  -2.128   0.000  -0.000  -0.000  -0.000
 -0.000  -0.000  -0.000  -0.000  -0.000  -0.000   0.000  -0.000  -0.000  -0.000  -2.128   0.935  -0.000   0.000   0.000   0.000
  0.000   0.000   0.000   0.084   0.000   0.000  -0.000   0.000   0.292   0.000   0.000  -0.000   2.572  -0.000  -0.000  -0.506
  0.084   0.000  -0.000   0.000  -0.000   0.292  -0.000  -0.000   0.000  -0.000  -0.000   0.000  -0.000   2.572  -0.000   0.000
  0.000   0.084  -0.000   0.000  -0.000  -0.000   0.292   0.000   0.000  -0.000  -0.000   0.000  -0.000  -0.000   2.572   0.000
 -0.000  -0.000  -0.000  -0.028   0.000   0.000   0.000   0.000  -0.057  -0.000  -0.000   0.000  -0.506   0.000   0.000   0.107
 -0.028  -0.000   0.000  -0.000  -0.000  -0.057   0.000  -0.000   0.000   0.000  -0.000   0.000   0.000  -0.506   0.000  -0.000
 -0.000  -0.028  -0.000  -0.000   0.000   0.000  -0.057  -0.000   0.000  -0.000  -0.000  -0.000   0.000   0.000  -0.506  -0.000


------------------------ aborting loop because EDIFF is reached ----------------------------------------





 total charge

# of ion       s       p       d       tot
------------------------------------------
    1        1.111   1.408  10.046  12.566
    2        1.111   1.408  10.046  12.566
--------------------------------------------------
tot          2.223   2.817  20.092  25.132
 
    FORLOC:  cpu time      0.0011: real time      0.0011
    FORHF :  cpu time     88.2420: real time     88.2673
    FORNL :  cpu time      0.1994: real time      0.1993
    FORCOR:  cpu time      0.1554: real time      0.1554
    OFIELD:  cpu time      0.0008: real time      0.0008

 VOLUME and BASIS-vectors are now :
 -----------------------------------------------------------------------------
  energy-cutoff  :      450.00
  volume of cell :       40.89
      direct lattice vectors                 reciprocal lattice vectors
     0.000000000  2.734310366  2.734310366    -0.182861465  0.182861465  0.182861465
     2.734310366  0.000000000  2.734310366     0.182861465 -0.182861465  0.182861465
     2.734310366  2.734310366  0.000000000     0.182861465  0.182861465 -0.182861465

  length of vectors
     3.866898804  3.866898804  3.866898804     0.316725349  0.316725349  0.316725349


 FORCES acting on ions:
    Electron-Ion                     Ewald-Force                    Non-Local-Force
 -----------------------------------------------------------------------------------------------
   0.187E-03 -.232E-03 0.359E-04   -.688E-14 -.468E-13 -.557E-14   -.833E-16 -.451E-16 -.694E-17
   -.187E-03 0.232E-03 -.359E-04   0.770E-14 0.437E-13 0.806E-14   0.694E-16 0.104E-16 0.000E+00
 -----------------------------------------------------------------------------------------------
   0.583E-08 0.475E-07 0.445E-07   0.825E-15 -.316E-14 0.249E-14   -.139E-16 -.347E-16 -.694E-17
 
 
 POSITION                                       TOTAL-FORCE (eV/Angst)
 -----------------------------------------------------------------------------------
      4.78504      4.78504      4.78504        -0.000000     -0.000000     -0.000000
      0.68358      0.68358      0.68358         0.000000      0.000000      0.000000
 -----------------------------------------------------------------------------------
    total drift:                                0.000000      0.000000      0.000000


--------------------------------------------------------------------------------------------------------



  FREE ENERGIE OF THE ION-ELECTRON SYSTEM (eV)
  ---------------------------------------------------
  free  energy   TOTEN  =       -10.56295995 eV

  energy  without entropy=      -10.56295995  energy(sigma->0) =      -10.56295995
 


--------------------------------------------------------------------------------------------------------


    POTLOK:  cpu time      0.1529: real time      0.1528


--------------------------------------------------------------------------------------------------------


 writing wavefunctions
     LOOP+:  cpu time   2097.8460: real time   2101.3131
    4ORBIT:  cpu time      0.0000: real time      0.0000



 total charge

# of ion       s       p       d       tot
------------------------------------------
    1        1.111   1.408  10.046  12.566
    2        1.111   1.408  10.046  12.566
--------------------------------------------------
tot          2.223   2.817  20.092  25.132
 

 total amount of memory used by VASP MPI-rank0   171763. kBytes
=======================================================================

   base      :      30000. kBytes
   nonl-proj :      16951. kBytes
   fftplans  :       9608. kBytes
   grid      :       3500. kBytes
   one-center:         31. kBytes
   HF        :         64. kBytes
   nonlr-proj:        909. kBytes
   wavefun   :     105546. kBytes
   fock_wrk  :       5154. kBytes
 
  
  
 General timing and accounting informations for this job:
 ========================================================
  
                  Total CPU time used (sec):     2112.994
                            User time (sec):     2107.630
                          System time (sec):        5.365
                         Elapsed time (sec):     2126.568
  
                   Maximum memory used (kb):     2574932.
                   Average memory used (kb):          N/A
  
                          Minor page faults:      1881314
                          Major page faults:         2924
                 Voluntary context switches:        87231
