PROCAR lm decomposed
# of k-points:  129         # of bands:   18         # of ions:    2

 k-point     1 :    0.00000000 0.00000000 0.00000000     weight = 0.00195313

band     1 # energy  -22.39857304 # occ.  2.00000000
 
ion      s     py     pz     px    dxy    dyz    dz2    dxz  x2-y2    tot
    1  0.000  0.001  0.000  0.000  0.066  0.104  0.000  0.327  0.000  0.497
    2  0.000  0.001  0.000  0.000  0.066  0.104  0.000  0.327  0.000  0.497
tot    0.000  0.001  0.000  0.000  0.131  0.207  0.000  0.654  0.000  0.995
 
band     2 # energy  -22.39857256 # occ.  2.00000000
 
ion      s     py     pz     px    dxy    dyz    dz2    dxz  x2-y2    tot
    1  0.000  0.000  0.000  0.000  0.257  0.238  0.000  0.002  0.000  0.497
    2  0.000  0.000  0.000  0.000  0.257  0.238  0.000  0.002  0.000  0.497
tot    0.000  0.000  0.001  0.001  0.513  0.475  0.000  0.005  0.000  0.995
 
band     3 # energy  -22.39856635 # occ.  2.00000000
 
ion      s     py     pz     px    dxy    dyz    dz2    dxz  x2-y2    tot
    1  0.000  0.000  0.000  0.000  0.174  0.155  0.000  0.167  0.000  0.497
    2  0.000  0.000  0.000  0.000  0.174  0.155  0.000  0.167  0.000  0.497
tot    0.000  0.001  0.001  0.001  0.349  0.310  0.000  0.334  0.000  0.995
 
band     4 # energy  -22.35307084 # occ.  2.00000000
 
ion      s     py     pz     px    dxy    dyz    dz2    dxz  x2-y2    tot
    1  0.000  0.000  0.000  0.000  0.000  0.000  0.327  0.000  0.169  0.496
    2  0.000  0.000  0.000  0.000  0.000  0.000  0.327  0.000  0.169  0.496
tot    0.000  0.000  0.000  0.000  0.000  0.000  0.655  0.000  0.337  0.992
 
band     5 # energy  -22.35307073 # occ.  2.00000000
 
ion      s     py     pz     px    dxy    dyz    dz2    dxz  x2-y2    tot
    1  0.000  0.000  0.000  0.000  0.000  0.000  0.169  0.000  0.327  0.496
    2  0.000  0.000  0.000  0.000  0.000  0.000  0.169  0.000  0.327  0.496
tot    0.000  0.000  0.000  0.000  0.000  0.000  0.337  0.000  0.655  0.992
 
band     6 # energy  -22.08236470 # occ.  2.00000000
 
ion      s     py     pz     px    dxy    dyz    dz2    dxz  x2-y2    tot
    1  0.000  0.000  0.000  0.000  0.000  0.253  0.000  0.244  0.000  0.498
    2  0.000  0.000  0.000  0.000  0.000  0.253  0.000  0.244  0.000  0.498
tot    0.000  0.001  0.000  0.001  0.000  0.506  0.000  0.489  0.000  0.996
 
band     7 # energy  -22.08236447 # occ.  2.00000000
 
ion      s     py     pz     px    dxy    dyz    dz2    dxz  x2-y2    tot
    1  0.000  0.000  0.000  0.000  0.323  0.081  0.000  0.094  0.000  0.498
    2  0.000  0.000  0.000  0.000  0.323  0.081  0.000  0.094  0.000  0.498
tot    0.000  0.000  0.001  0.000  0.645  0.162  0.000  0.187  0.000  0.996
 
band     8 # energy  -22.08235645 # occ.  2.00000000
 
ion      s     py     pz     px    dxy    dyz    dz2    dxz  x2-y2    tot
    1  0.000  0.000  0.000  0.000  0.175  0.164  0.000  0.159  0.000  0.498
    2  0.000  0.000  0.000  0.000  0.175  0.164  0.000  0.159  0.000  0.498
tot    0.000  0.000  0.000  0.000  0.349  0.327  0.000  0.319  0.000  0.996
 
band     9 # energy  -22.05441048 # occ.  2.00000000
 
ion      s     py     pz     px    dxy    dyz    dz2    dxz  x2-y2    tot
    1  0.000  0.000  0.000  0.000  0.000  0.000  0.302  0.000  0.197  0.499
    2  0.000  0.000  0.000  0.000  0.000  0.000  0.302  0.000  0.197  0.499
tot    0.000  0.000  0.000  0.000  0.000  0.000  0.604  0.000  0.394  0.998
 
band    10 # energy  -22.05441038 # occ.  2.00000000
 
ion      s     py     pz     px    dxy    dyz    dz2    dxz  x2-y2    tot
    1  0.000  0.000  0.000  0.000  0.000  0.000  0.197  0.000  0.302  0.499
    2  0.000  0.000  0.000  0.000  0.000  0.000  0.197  0.000  0.302  0.499
tot    0.000  0.000  0.000  0.000  0.000  0.000  0.394  0.000  0.604  0.998
 
band    11 # energy   -9.23296596 # occ.  2.00000000
 
ion      s     py     pz     px    dxy    dyz    dz2    dxz  x2-y2    tot
    1  0.326  0.000  0.000  0.000  0.000  0.000  0.000  0.000  0.000  0.326
    2  0.326  0.000  0.000  0.000  0.000  0.000  0.000  0.000  0.000  0.326
tot    0.651  0.000  0.000  0.000  0.000  0.000  0.000  0.000  0.000  0.651
 
band    12 # energy    5.71070086 # occ.  1.99999999
 
ion      s     py     pz     px    dxy    dyz    dz2    dxz  x2-y2    tot
    1  0.000  0.101  0.105  0.120  0.016  0.018  0.000  0.015  0.000  0.374
    2  0.000  0.101  0.105  0.120  0.016  0.018  0.000  0.015  0.000  0.374
tot    0.000  0.202  0.210  0.240  0.031  0.035  0.000  0.030  0.000  0.748
 
band    13 # energy    5.71075293 # occ.  1.99999999
 
ion      s     py     pz     px    dxy    dyz    dz2    dxz  x2-y2    tot
    1  0.000  0.204  0.113  0.010  0.017  0.001  0.000  0.030  0.000  0.374
    2  0.000  0.204  0.113  0.010  0.017  0.001  0.000  0.030  0.000  0.374
tot    0.000  0.407  0.225  0.020  0.033  0.003  0.000  0.060  0.000  0.748
 
band    14 # energy    5.71075879 # occ.  1.99999999
 
ion      s     py     pz     px    dxy    dyz    dz2    dxz  x2-y2    tot
    1  0.000  0.022  0.108  0.196  0.016  0.029  0.000  0.003  0.000  0.374
    2  0.000  0.022  0.108  0.196  0.016  0.029  0.000  0.003  0.000  0.374
tot    0.000  0.043  0.216  0.393  0.032  0.058  0.000  0.006  0.000  0.748
 
band    15 # energy    7.69695989 # occ.  0.00000000
 
ion      s     py     pz     px    dxy    dyz    dz2    dxz  x2-y2    tot
    1  0.428  0.000  0.000  0.000  0.000  0.000  0.000  0.000  0.000  0.428
    2  0.428  0.000  0.000  0.000  0.000  0.000  0.000  0.000  0.000  0.428
tot    0.857  0.000  0.000  0.000  0.000  0.000  0.000  0.000  0.000  0.857
 
band    16 # energy    8.99404948 # occ.  0.00000000
 
ion      s     py     pz     px    dxy    dyz    dz2    dxz  x2-y2    tot
    1  0.000  0.033  0.106  0.072  0.028  0.019  0.000  0.009  0.000  0.268
    2  0.000  0.033  0.106  0.072  0.028  0.019  0.000  0.009  0.000  0.268
tot    0.000  0.067  0.212  0.144  0.057  0.039  0.000  0.018  0.000  0.536
 
band    17 # energy    8.99405100 # occ.  0.00000000
 
ion      s     py     pz     px    dxy    dyz    dz2    dxz  x2-y2    tot
    1  0.000  0.136  0.000  0.075  0.000  0.020  0.000  0.036  0.000  0.268
    2  0.000  0.136  0.000  0.075  0.000  0.020  0.000  0.036  0.000  0.268
tot    0.000  0.271  0.001  0.151  0.000  0.040  0.000  0.073  0.000  0.536
 
band    18 # energy    8.99405176 # occ.  0.00000000
 
ion      s     py     pz     px    dxy    dyz    dz2    dxz  x2-y2    tot
    1  0.000  0.042  0.105  0.064  0.028  0.017  0.000  0.011  0.000  0.268
    2  0.000  0.042  0.105  0.064  0.028  0.017  0.000  0.011  0.000  0.268
tot    0.000  0.085  0.210  0.128  0.056  0.034  0.000  0.023  0.000  0.536
 

 k-point     2 :    0.12500000 0.00000000 0.00000000     weight = 0.01562500

band     1 # energy  -22.40951833 # occ.  2.00000000
 
ion      s     py     pz     px    dxy    dyz    dz2    dxz  x2-y2    tot
    1  0.000  0.000  0.000  0.000  0.224  0.000  0.039  0.221  0.013  0.497
    2  0.000  0.000  0.000  0.000  0.224  0.000  0.039  0.221  0.013  0.497
tot    0.000  0.001  0.001  0.000  0.448  0.000  0.078  0.442  0.025  0.994
 
band     2 # energy  -22.40951330 # occ.  2.00000000
 
ion      s     py     pz     px    dxy    dyz    dz2    dxz  x2-y2    tot
    1  0.000  0.000  0.000  0.000  0.073  0.297  0.013  0.076  0.039  0.497
    2  0.000  0.000  0.000  0.000  0.073  0.297  0.013  0.076  0.039  0.497
tot    0.000  0.000  0.000  0.001  0.145  0.593  0.025  0.151  0.078  0.994
 
band     3 # energy  -22.39543291 # occ.  2.00000000
 
ion      s     py     pz     px    dxy    dyz    dz2    dxz  x2-y2    tot
    1  0.000  0.000  0.000  0.000  0.166  0.165  0.000  0.166  0.000  0.497
    2  0.000  0.000  0.000  0.000  0.166  0.165  0.000  0.166  0.000  0.497
tot    0.000  0.000  0.000  0.000  0.331  0.331  0.000  0.331  0.000  0.995
 
band     4 # energy  -22.33785032 # occ.  2.00000000
 
ion      s     py     pz     px    dxy    dyz    dz2    dxz  x2-y2    tot
    1  0.000  0.000  0.000  0.000  0.027  0.000  0.347  0.025  0.097  0.496
    2  0.000  0.000  0.000  0.000  0.027  0.000  0.347  0.025  0.097  0.496
tot    0.000  0.000  0.000  0.000  0.054  0.000  0.694  0.050  0.194  0.993
 
band     5 # energy  -22.33784969 # occ.  2.00000000
 
ion      s     py     pz     px    dxy    dyz    dz2    dxz  x2-y2    tot
    1  0.000  0.000  0.000  0.000  0.008  0.035  0.097  0.010  0.347  0.496
    2  0.000  0.000  0.000  0.000  0.008  0.035  0.097  0.010  0.347  0.496
tot    0.000  0.000  0.000  0.000  0.015  0.069  0.194  0.020  0.694  0.993
 
band     6 # energy  -22.09441562 # occ.  2.00000000
 
ion      s     py     pz     px    dxy    dyz    dz2    dxz  x2-y2    tot
    1  0.000  0.000  0.000  0.000  0.157  0.000  0.134  0.160  0.047  0.498
    2  0.000  0.000  0.000  0.000  0.157  0.000  0.134  0.160  0.047  0.498
tot    0.000  0.000  0.000  0.000  0.313  0.000  0.269  0.320  0.093  0.996
 
band     7 # energy  -22.09441094 # occ.  2.00000000
 
ion      s     py     pz     px    dxy    dyz    dz2    dxz  x2-y2    tot
    1  0.000  0.000  0.000  0.000  0.054  0.211  0.047  0.051  0.134  0.498
    2  0.000  0.000  0.000  0.000  0.054  0.211  0.047  0.051  0.134  0.498
tot    0.000  0.000  0.000  0.000  0.109  0.422  0.093  0.102  0.269  0.996
 
band     8 # energy  -22.08596089 # occ.  2.00000000
 
ion      s     py     pz     px    dxy    dyz    dz2    dxz  x2-y2    tot
    1  0.000  0.000  0.000  0.000  0.166  0.166  0.000  0.166  0.000  0.498
    2  0.000  0.000  0.000  0.000  0.166  0.166  0.000  0.166  0.000  0.498
tot    0.000  0.000  0.000  0.000  0.332  0.331  0.000  0.332  0.000  0.996
 
band     9 # energy  -22.04491526 # occ.  2.00000000
 
ion      s     py     pz     px    dxy    dyz    dz2    dxz  x2-y2    tot
    1  0.000  0.000  0.000  0.000  0.089  0.000  0.236  0.091  0.082  0.499
    2  0.000  0.000  0.000  0.000  0.089  0.000  0.236  0.091  0.082  0.499
tot    0.000  0.000  0.000  0.000  0.178  0.000  0.472  0.183  0.165  0.998
 
band    10 # energy  -22.04491294 # occ.  2.00000000
 
ion      s     py     pz     px    dxy    dyz    dz2    dxz  x2-y2    tot
    1  0.000  0.000  0.000  0.000  0.031  0.120  0.082  0.029  0.236  0.499
    2  0.000  0.000  0.000  0.000  0.031  0.120  0.082  0.029  0.236  0.499
tot    0.000  0.000  0.000  0.000  0.062  0.241  0.165  0.058  0.472  0.998
 
band    11 # energy   -9.00127128 # occ.  2.00000000
 
ion      s     py     pz     px    dxy    dyz    dz2    dxz  x2-y2    tot
    1  0.323  0.001  0.001  0.001  0.000  0.000  0.000  0.000  0.000  0.327
    2  0.323  0.001  0.001  0.001  0.000  0.000  0.000  0.000  0.000  0.327
tot    0.646  0.002  0.002  0.002  0.000  0.000  0.000  0.000  0.000  0.654
 
band    12 # energy    3.39694488 # occ.  2.00000000
 
ion      s     py     pz     px    dxy    dyz    dz2    dxz  x2-y2    tot
    1  0.120  0.071  0.071  0.071  0.010  0.010  0.000  0.010  0.000  0.361
    2  0.120  0.071  0.071  0.071  0.010  0.010  0.000  0.010  0.000  0.361
tot    0.240  0.141  0.141  0.141  0.020  0.020  0.000  0.020  0.000  0.722
 
band    13 # energy    5.31090342 # occ.  2.00000000
 
ion      s     py     pz     px    dxy    dyz    dz2    dxz  x2-y2    tot
    1  0.000  0.048  0.058  0.213  0.007  0.027  0.000  0.006  0.000  0.361
    2  0.000  0.048  0.058  0.213  0.007  0.027  0.000  0.006  0.000  0.361
tot    0.000  0.097  0.116  0.426  0.015  0.054  0.000  0.012  0.001  0.722
 
band    14 # energy    5.31094108 # occ.  2.00000000
 
ion      s     py     pz     px    dxy    dyz    dz2    dxz  x2-y2    tot
    1  0.000  0.165  0.155  0.000  0.020  0.000  0.000  0.021  0.000  0.361
    2  0.000  0.165  0.155  0.000  0.020  0.000  0.000  0.021  0.000  0.361
tot    0.000  0.329  0.310  0.000  0.039  0.000  0.001  0.042  0.000  0.722
 
band    15 # energy    8.04762696 # occ.  0.00000000
 
ion      s     py     pz     px    dxy    dyz    dz2    dxz  x2-y2    tot
    1  0.219  0.031  0.031  0.031  0.008  0.008  0.000  0.008  0.000  0.335
    2  0.219  0.031  0.031  0.031  0.008  0.008  0.000  0.008  0.000  0.335
tot    0.438  0.061  0.061  0.061  0.016  0.016  0.000  0.016  0.000  0.670
 
band    16 # energy    9.52791514 # occ.  0.00000000
 
ion      s     py     pz     px    dxy    dyz    dz2    dxz  x2-y2    tot
    1  0.000  0.072  0.010  0.136  0.003  0.037  0.000  0.020  0.002  0.280
    2  0.000  0.072  0.010  0.136  0.003  0.037  0.000  0.020  0.002  0.280
tot    0.000  0.144  0.020  0.272  0.006  0.074  0.000  0.039  0.005  0.561
 
band    17 # energy    9.52792207 # occ.  0.00000000
 
ion      s     py     pz     px    dxy    dyz    dz2    dxz  x2-y2    tot
    1  0.000  0.074  0.135  0.009  0.037  0.003  0.002  0.020  0.000  0.280
    2  0.000  0.074  0.135  0.009  0.037  0.003  0.002  0.020  0.000  0.280
tot    0.000  0.147  0.271  0.019  0.074  0.005  0.005  0.040  0.000  0.561
 
band    18 # energy   10.41025239 # occ.  0.00000000
 
ion      s     py     pz     px    dxy    dyz    dz2    dxz  x2-y2    tot
    1  0.113  0.061  0.061  0.061  0.014  0.014  0.000  0.014  0.000  0.339
    2  0.113  0.061  0.061  0.061  0.014  0.014  0.000  0.014  0.000  0.339
tot    0.227  0.122  0.122  0.122  0.028  0.028  0.000  0.028  0.000  0.677
 

 k-point     3 :    0.25000000 0.00000000 0.00000000     weight = 0.01562500

band     1 # energy  -22.42260302 # occ.  2.00000000
 
ion      s     py     pz     px    dxy    dyz    dz2    dxz  x2-y2    tot
    1  0.000  0.000  0.000  0.000  0.224  0.000  0.041  0.219  0.013  0.497
    2  0.000  0.000  0.000  0.000  0.224  0.000  0.041  0.219  0.013  0.497
tot    0.000  0.001  0.001  0.000  0.449  0.000  0.081  0.437  0.026  0.994
 
band     2 # energy  -22.42259830 # occ.  2.00000000
 
ion      s     py     pz     px    dxy    dyz    dz2    dxz  x2-y2    tot
    1  0.000  0.000  0.000  0.000  0.071  0.295  0.013  0.077  0.041  0.497
    2  0.000  0.000  0.000  0.000  0.071  0.295  0.013  0.077  0.041  0.497
tot    0.000  0.000  0.000  0.001  0.142  0.591  0.026  0.154  0.081  0.994
 
band     3 # energy  -22.38785586 # occ.  2.00000000
 
ion      s     py     pz     px    dxy    dyz    dz2    dxz  x2-y2    tot
    1  0.000  0.000  0.000  0.000  0.165  0.165  0.000  0.165  0.000  0.497
    2  0.000  0.000  0.000  0.000  0.165  0.165  0.000  0.165  0.000  0.497
tot    0.001  0.000  0.000  0.000  0.331  0.331  0.000  0.331  0.000  0.994
 
band     4 # energy  -22.31521135 # occ.  2.00000000
 
ion      s     py     pz     px    dxy    dyz    dz2    dxz  x2-y2    tot
    1  0.000  0.000  0.000  0.000  0.028  0.000  0.321  0.029  0.118  0.497
    2  0.000  0.000  0.000  0.000  0.028  0.000  0.321  0.029  0.118  0.497
tot    0.000  0.000  0.000  0.000  0.056  0.000  0.642  0.059  0.236  0.993
 
band     5 # energy  -22.31521016 # occ.  2.00000000
 
ion      s     py     pz     px    dxy    dyz    dz2    dxz  x2-y2    tot
    1  0.000  0.000  0.000  0.000  0.010  0.038  0.118  0.009  0.321  0.497
    2  0.000  0.000  0.000  0.000  0.010  0.038  0.118  0.009  0.321  0.497
tot    0.000  0.000  0.000  0.000  0.021  0.077  0.236  0.018  0.642  0.993
 
band     6 # energy  -22.11003058 # occ.  2.00000000
 
ion      s     py     pz     px    dxy    dyz    dz2    dxz  x2-y2    tot
    1  0.000  0.000  0.000  0.000  0.084  0.000  0.244  0.085  0.084  0.498
    2  0.000  0.000  0.000  0.000  0.084  0.000  0.244  0.085  0.084  0.498
tot    0.000  0.000  0.000  0.000  0.168  0.000  0.489  0.171  0.168  0.996
 
band     7 # energy  -22.11002766 # occ.  2.00000000
 
ion      s     py     pz     px    dxy    dyz    dz2    dxz  x2-y2    tot
    1  0.000  0.000  0.000  0.000  0.029  0.113  0.084  0.028  0.244  0.498
    2  0.000  0.000  0.000  0.000  0.029  0.113  0.084  0.028  0.244  0.498
tot    0.000  0.000  0.000  0.000  0.058  0.226  0.168  0.055  0.489  0.996
 
band     8 # energy  -22.09453396 # occ.  2.00000000
 
ion      s     py     pz     px    dxy    dyz    dz2    dxz  x2-y2    tot
    1  0.000  0.000  0.000  0.000  0.166  0.166  0.000  0.166  0.000  0.498
    2  0.000  0.000  0.000  0.000  0.166  0.166  0.000  0.166  0.000  0.498
tot    0.001  0.000  0.000  0.000  0.332  0.331  0.000  0.332  0.000  0.996
 
band     9 # energy  -22.03366430 # occ.  2.00000000
 
ion      s     py     pz     px    dxy    dyz    dz2    dxz  x2-y2    tot
    1  0.000  0.000  0.000  0.000  0.161  0.000  0.130  0.163  0.044  0.499
    2  0.000  0.000  0.000  0.000  0.161  0.000  0.130  0.163  0.044  0.499
tot    0.000  0.000  0.000  0.000  0.322  0.000  0.259  0.327  0.089  0.998
 
band    10 # energy  -22.03365996 # occ.  2.00000000
 
ion      s     py     pz     px    dxy    dyz    dz2    dxz  x2-y2    tot
    1  0.000  0.000  0.000  0.000  0.055  0.216  0.044  0.053  0.130  0.499
    2  0.000  0.000  0.000  0.000  0.055  0.216  0.044  0.053  0.130  0.499
tot    0.000  0.000  0.000  0.000  0.110  0.433  0.089  0.106  0.259  0.998
 
band    11 # energy   -8.32468125 # occ.  2.00000000
 
ion      s     py     pz     px    dxy    dyz    dz2    dxz  x2-y2    tot
    1  0.318  0.004  0.004  0.004  0.001  0.001  0.000  0.001  0.000  0.332
    2  0.318  0.004  0.004  0.004  0.001  0.001  0.000  0.001  0.000  0.332
tot    0.636  0.008  0.008  0.008  0.001  0.001  0.000  0.001  0.000  0.664
 
band    12 # energy    0.46262628 # occ.  2.00000000
 
ion      s     py     pz     px    dxy    dyz    dz2    dxz  x2-y2    tot
    1  0.153  0.056  0.056  0.056  0.006  0.006  0.000  0.006  0.000  0.339
    2  0.153  0.056  0.056  0.056  0.006  0.006  0.000  0.006  0.000  0.339
tot    0.306  0.112  0.112  0.112  0.011  0.011  0.000  0.011  0.000  0.677
 
band    13 # energy    4.64712433 # occ.  2.00000000
 
ion      s     py     pz     px    dxy    dyz    dz2    dxz  x2-y2    tot
    1  0.000  0.046  0.061  0.211  0.006  0.019  0.001  0.004  0.001  0.349
    2  0.000  0.046  0.061  0.211  0.006  0.019  0.001  0.004  0.001  0.349
tot    0.000  0.091  0.121  0.423  0.011  0.038  0.001  0.008  0.003  0.697
 
band    14 # energy    4.64715120 # occ.  2.00000000
 
ion      s     py     pz     px    dxy    dyz    dz2    dxz  x2-y2    tot
    1  0.000  0.166  0.151  0.000  0.014  0.000  0.001  0.015  0.001  0.349
    2  0.000  0.166  0.151  0.000  0.014  0.000  0.001  0.015  0.001  0.349
tot    0.000  0.332  0.302  0.001  0.028  0.000  0.003  0.030  0.001  0.697
 
band    15 # energy    7.48672007 # occ.  0.00000000
 
ion      s     py     pz     px    dxy    dyz    dz2    dxz  x2-y2    tot
    1  0.211  0.022  0.022  0.022  0.011  0.011  0.000  0.011  0.000  0.312
    2  0.211  0.022  0.022  0.022  0.011  0.011  0.000  0.011  0.000  0.312
tot    0.422  0.044  0.044  0.044  0.023  0.023  0.000  0.023  0.000  0.623
 
band    16 # energy   10.23932603 # occ.  0.00000000
 
ion      s     py     pz     px    dxy    dyz    dz2    dxz  x2-y2    tot
    1  0.000  0.033  0.033  0.134  0.009  0.036  0.005  0.009  0.015  0.274
    2  0.000  0.033  0.033  0.134  0.009  0.036  0.005  0.009  0.015  0.274
tot    0.000  0.067  0.067  0.267  0.018  0.071  0.010  0.018  0.031  0.549
 
band    17 # energy   10.23934921 # occ.  0.00000000
 
ion      s     py     pz     px    dxy    dyz    dz2    dxz  x2-y2    tot
    1  0.000  0.100  0.100  0.000  0.027  0.000  0.015  0.027  0.005  0.274
    2  0.000  0.100  0.100  0.000  0.027  0.000  0.015  0.027  0.005  0.274
tot    0.000  0.200  0.200  0.000  0.053  0.000  0.031  0.054  0.010  0.549
 
band    18 # energy   12.99327630 # occ.  0.00000000
 
ion      s     py     pz     px    dxy    dyz    dz2    dxz  x2-y2    tot
    1  0.096  0.065  0.065  0.065  0.009  0.009  0.000  0.009  0.000  0.319
    2  0.096  0.065  0.065  0.065  0.009  0.009  0.000  0.009  0.000  0.319
tot    0.192  0.130  0.130  0.130  0.019  0.019  0.000  0.019  0.000  0.638
 

 k-point     4 :    0.37500000 0.00000000 0.00000000     weight = 0.01562500

band     1 # energy  -22.42872542 # occ.  2.00000000
 
ion      s     py     pz     px    dxy    dyz    dz2    dxz  x2-y2    tot
    1  0.000  0.000  0.000  0.000  0.238  0.000  0.023  0.229  0.007  0.497
    2  0.000  0.000  0.000  0.000  0.238  0.000  0.023  0.229  0.007  0.497
tot    0.000  0.001  0.001  0.000  0.475  0.000  0.046  0.458  0.014  0.994
 
band     2 # energy  -22.42872067 # occ.  2.00000000
 
ion      s     py     pz     px    dxy    dyz    dz2    dxz  x2-y2    tot
    1  0.000  0.000  0.000  0.000  0.073  0.311  0.007  0.082  0.023  0.497
    2  0.000  0.000  0.000  0.000  0.073  0.311  0.007  0.082  0.023  0.497
tot    0.000  0.000  0.000  0.001  0.147  0.622  0.014  0.164  0.046  0.994
 
band     3 # energy  -22.38049386 # occ.  2.00000000
 
ion      s     py     pz     px    dxy    dyz    dz2    dxz  x2-y2    tot
    1  0.001  0.000  0.000  0.000  0.165  0.165  0.000  0.165  0.000  0.497
    2  0.001  0.000  0.000  0.000  0.165  0.165  0.000  0.165  0.000  0.497
tot    0.001  0.000  0.000  0.000  0.331  0.331  0.000  0.331  0.000  0.994
 
band     4 # energy  -22.30192681 # occ.  2.00000000
 
ion      s     py     pz     px    dxy    dyz    dz2    dxz  x2-y2    tot
    1  0.000  0.000  0.000  0.000  0.020  0.000  0.319  0.022  0.135  0.497
    2  0.000  0.000  0.000  0.000  0.020  0.000  0.319  0.022  0.135  0.497
tot    0.000  0.000  0.000  0.000  0.040  0.000  0.638  0.045  0.270  0.993
 
band     5 # energy  -22.30192539 # occ.  2.00000000
 
ion      s     py     pz     px    dxy    dyz    dz2    dxz  x2-y2    tot
    1  0.000  0.000  0.000  0.000  0.008  0.028  0.135  0.006  0.319  0.497
    2  0.000  0.000  0.000  0.000  0.008  0.028  0.135  0.006  0.319  0.497
tot    0.000  0.000  0.000  0.000  0.017  0.056  0.270  0.012  0.638  0.993
 
band     6 # energy  -22.11722239 # occ.  2.00000000
 
ion      s     py     pz     px    dxy    dyz    dz2    dxz  x2-y2    tot
    1  0.000  0.000  0.000  0.000  0.031  0.000  0.324  0.032  0.111  0.498
    2  0.000  0.000  0.000  0.000  0.031  0.000  0.324  0.032  0.111  0.498
tot    0.000  0.000  0.000  0.000  0.062  0.000  0.648  0.063  0.222  0.997
 
band     7 # energy  -22.11722085 # occ.  2.00000000
 
ion      s     py     pz     px    dxy    dyz    dz2    dxz  x2-y2    tot
    1  0.000  0.000  0.000  0.000  0.011  0.042  0.111  0.010  0.324  0.498
    2  0.000  0.000  0.000  0.000  0.011  0.042  0.111  0.010  0.324  0.498
tot    0.000  0.000  0.000  0.000  0.021  0.084  0.222  0.020  0.648  0.997
 
band     8 # energy  -22.10350781 # occ.  2.00000000
 
ion      s     py     pz     px    dxy    dyz    dz2    dxz  x2-y2    tot
    1  0.001  0.000  0.000  0.000  0.166  0.166  0.000  0.166  0.000  0.498
    2  0.001  0.000  0.000  0.000  0.166  0.166  0.000  0.166  0.000  0.498
tot    0.002  0.000  0.000  0.000  0.331  0.331  0.000  0.331  0.000  0.996
 
band     9 # energy  -22.02805034 # occ.  2.00000000
 
ion      s     py     pz     px    dxy    dyz    dz2    dxz  x2-y2    tot
    1  0.000  0.000  0.000  0.000  0.211  0.000  0.056  0.212  0.019  0.499
    2  0.000  0.000  0.000  0.000  0.211  0.000  0.056  0.212  0.019  0.499
tot    0.000  0.000  0.000  0.000  0.422  0.000  0.113  0.424  0.038  0.997
 
band    10 # energy  -22.02804464 # occ.  2.00000000
 
ion      s     py     pz     px    dxy    dyz    dz2    dxz  x2-y2    tot
    1  0.000  0.000  0.000  0.000  0.071  0.282  0.019  0.070  0.056  0.499
    2  0.000  0.000  0.000  0.000  0.071  0.282  0.019  0.070  0.056  0.499
tot    0.000  0.000  0.000  0.000  0.142  0.564  0.038  0.140  0.113  0.997
 
band    11 # energy   -7.31460566 # occ.  2.00000000
 
ion      s     py     pz     px    dxy    dyz    dz2    dxz  x2-y2    tot
    1  0.317  0.007  0.007  0.007  0.001  0.001  0.000  0.001  0.000  0.344
    2  0.317  0.007  0.007  0.007  0.001  0.001  0.000  0.001  0.000  0.344
tot    0.635  0.015  0.015  0.015  0.003  0.003  0.000  0.003  0.000  0.687
 
band    12 # energy   -1.98590075 # occ.  2.00000000
 
ion      s     py     pz     px    dxy    dyz    dz2    dxz  x2-y2    tot
    1  0.165  0.048  0.048  0.048  0.003  0.003  0.000  0.003  0.000  0.317
    2  0.165  0.048  0.048  0.048  0.003  0.003  0.000  0.003  0.000  0.317
tot    0.329  0.096  0.096  0.096  0.005  0.005  0.000  0.005  0.000  0.634
 
band    13 # energy    4.17305049 # occ.  2.00000000
 
ion      s     py     pz     px    dxy    dyz    dz2    dxz  x2-y2    tot
    1  0.000  0.046  0.061  0.213  0.004  0.013  0.001  0.003  0.002  0.344
    2  0.000  0.046  0.061  0.213  0.004  0.013  0.001  0.003  0.002  0.344
tot    0.000  0.093  0.121  0.426  0.008  0.027  0.002  0.006  0.004  0.687
 
band    14 # energy    4.17307189 # occ.  2.00000000
 
ion      s     py     pz     px    dxy    dyz    dz2    dxz  x2-y2    tot
    1  0.000  0.167  0.153  0.000  0.010  0.000  0.002  0.011  0.001  0.344
    2  0.000  0.167  0.153  0.000  0.010  0.000  0.002  0.011  0.001  0.344
tot    0.000  0.334  0.306  0.001  0.019  0.000  0.004  0.021  0.002  0.687
 
band    15 # energy    7.06965723 # occ.  0.00000000
 
ion      s     py     pz     px    dxy    dyz    dz2    dxz  x2-y2    tot
    1  0.225  0.015  0.015  0.015  0.013  0.013  0.000  0.013  0.000  0.311
    2  0.225  0.015  0.015  0.015  0.013  0.013  0.000  0.013  0.000  0.311
tot    0.451  0.031  0.031  0.031  0.026  0.026  0.000  0.026  0.000  0.621
 
band    16 # energy   10.31415205 # occ.  0.00000000
 
ion      s     py     pz     px    dxy    dyz    dz2    dxz  x2-y2    tot
    1  0.000  0.058  0.004  0.094  0.001  0.026  0.002  0.016  0.043  0.244
    2  0.000  0.058  0.004  0.094  0.001  0.026  0.002  0.016  0.043  0.244
tot    0.000  0.116  0.009  0.188  0.002  0.052  0.004  0.032  0.086  0.489
 
band    17 # energy   10.31417387 # occ.  0.00000000
 
ion      s     py     pz     px    dxy    dyz    dz2    dxz  x2-y2    tot
    1  0.000  0.046  0.100  0.010  0.028  0.003  0.043  0.013  0.002  0.244
    2  0.000  0.046  0.100  0.010  0.028  0.003  0.043  0.013  0.002  0.244
tot    0.000  0.092  0.199  0.020  0.056  0.006  0.086  0.026  0.004  0.489
 
band    18 # energy   14.26037817 # occ.  0.00000000
 
ion      s     py     pz     px    dxy    dyz    dz2    dxz  x2-y2    tot
    1  0.008  0.047  0.047  0.047  0.007  0.007  0.000  0.007  0.000  0.171
    2  0.008  0.047  0.047  0.047  0.007  0.007  0.000  0.007  0.000  0.171
tot    0.017  0.093  0.094  0.094  0.015  0.015  0.000  0.015  0.000  0.342
 

 k-point     5 :    0.50000000 0.00000000 0.00000000     weight = 0.00781250

band     1 # energy  -22.43025348 # occ.  2.00000000
 
ion      s     py     pz     px    dxy    dyz    dz2    dxz  x2-y2    tot
    1  0.000  0.000  0.000  0.000  0.245  0.000  0.013  0.234  0.004  0.497
    2  0.000  0.000  0.000  0.000  0.245  0.000  0.013  0.234  0.004  0.497
tot    0.000  0.000  0.001  0.000  0.490  0.000  0.026  0.469  0.008  0.994
 
band     2 # energy  -22.43024871 # occ.  2.00000000
 
ion      s     py     pz     px    dxy    dyz    dz2    dxz  x2-y2    tot
    1  0.000  0.000  0.000  0.000  0.075  0.319  0.004  0.085  0.013  0.497
    2  0.000  0.000  0.000  0.000  0.075  0.319  0.004  0.085  0.013  0.497
tot    0.000  0.000  0.000  0.001  0.149  0.639  0.008  0.171  0.026  0.994
 
band     3 # energy  -22.37728655 # occ.  2.00000000
 
ion      s     py     pz     px    dxy    dyz    dz2    dxz  x2-y2    tot
    1  0.001  0.000  0.000  0.000  0.165  0.165  0.000  0.165  0.000  0.497
    2  0.001  0.000  0.000  0.000  0.165  0.165  0.000  0.165  0.000  0.497
tot    0.001  0.000  0.000  0.000  0.331  0.331  0.000  0.331  0.000  0.994
 
band     4 # energy  -22.29846559 # occ.  2.00000000
 
ion      s     py     pz     px    dxy    dyz    dz2    dxz  x2-y2    tot
    1  0.000  0.000  0.000  0.000  0.015  0.000  0.313  0.019  0.149  0.496
    2  0.000  0.000  0.000  0.000  0.015  0.000  0.313  0.019  0.149  0.496
tot    0.000  0.000  0.000  0.000  0.031  0.000  0.626  0.037  0.298  0.993
 
band     5 # energy  -22.29846434 # occ.  2.00000000
 
ion      s     py     pz     px    dxy    dyz    dz2    dxz  x2-y2    tot
    1  0.000  0.000  0.000  0.000  0.007  0.023  0.149  0.004  0.313  0.496
    2  0.000  0.000  0.000  0.000  0.007  0.023  0.149  0.004  0.313  0.496
tot    0.000  0.000  0.000  0.000  0.015  0.045  0.298  0.008  0.626  0.993
 
band     6 # energy  -22.11832015 # occ.  2.00000000
 
ion      s     py     pz     px    dxy    dyz    dz2    dxz  x2-y2    tot
    1  0.000  0.000  0.000  0.000  0.008  0.000  0.352  0.009  0.129  0.498
    2  0.000  0.000  0.000  0.000  0.008  0.000  0.352  0.009  0.129  0.498
tot    0.000  0.000  0.000  0.000  0.017  0.000  0.705  0.018  0.257  0.997
 
band     7 # energy  -22.11831911 # occ.  2.00000000
 
ion      s     py     pz     px    dxy    dyz    dz2    dxz  x2-y2    tot
    1  0.000  0.000  0.000  0.000  0.003  0.012  0.129  0.003  0.352  0.498
    2  0.000  0.000  0.000  0.000  0.003  0.012  0.129  0.003  0.352  0.498
tot    0.000  0.000  0.000  0.000  0.006  0.023  0.257  0.005  0.705  0.997
 
band     8 # energy  -22.10727052 # occ.  2.00000000
 
ion      s     py     pz     px    dxy    dyz    dz2    dxz  x2-y2    tot
    1  0.001  0.000  0.000  0.000  0.166  0.166  0.000  0.166  0.000  0.498
    2  0.001  0.000  0.000  0.000  0.166  0.166  0.000  0.166  0.000  0.498
tot    0.002  0.000  0.000  0.000  0.331  0.331  0.000  0.331  0.000  0.996
 
band     9 # energy  -22.02685317 # occ.  2.00000000
 
ion      s     py     pz     px    dxy    dyz    dz2    dxz  x2-y2    tot
    1  0.000  0.000  0.000  0.000  0.233  0.000  0.026  0.231  0.009  0.499
    2  0.000  0.000  0.000  0.000  0.233  0.000  0.026  0.231  0.009  0.499
tot    0.000  0.000  0.000  0.000  0.465  0.000  0.052  0.463  0.017  0.997
 
band    10 # energy  -22.02684751 # occ.  2.00000000
 
ion      s     py     pz     px    dxy    dyz    dz2    dxz  x2-y2    tot
    1  0.000  0.000  0.000  0.000  0.077  0.309  0.009  0.078  0.026  0.499
    2  0.000  0.000  0.000  0.000  0.077  0.309  0.009  0.078  0.026  0.499
tot    0.000  0.000  0.000  0.000  0.153  0.618  0.017  0.156  0.052  0.997
 
band    11 # energy   -6.61353184 # occ.  2.00000000
 