 vasp.6.3.2 27Jun22 (build Dec  9 2025 07:45:44) complex                         
 executed on              LinuxNV date 2026.01.21  17:08:41
 running on    8 total cores
 distrk:  each k-point on    1 cores,    8 groups
 distr:  one band on NCORE=   1 cores,    1 groups


--------------------------------------------------------------------------------------------------------


 INCAR:
   NCORE = 1
   KPAR = 8
   NSIM = 4
   LPLANE = .FALSE.
   ISTART = 1            (Read existing wavefunction, if there)
   ISPIN = 1            (Non-Spin polarised DFT)
   LREAL = .FALSE.       (Projection operators: automatic)
   ENCUT = 450         (Cut-off energy for plane wave basis set, in eV)
   LWAVE = .TRUE.        (Write WAVECAR or not)
   LCHARG = .TRUE.        (Write CHGCAR or not)
   ADDGRID = .TRUE.        (Increase grid, helps GGA convergence)
   ISMEAR = 0            (gaussian smearing method)
   SIGMA = 0.05         (please check the width of the smearing)
   LORBIT = 11           (PAW radii for projected DOS)
   NEDOS = 1000         (DOSCAR points)
   NELM = 60           (Max electronic SCF steps)
   EDIFF = 1E-06        (SCF energy convergence, in eV)
   LHFCALC = .TRUE.       (Activate HF)
   AEXX = 0.25        (25% HF exact exchange, adjusted this value to reproduce experimental band gap)
   HFSCREEN = 0.2         (Switch to screened exchange, e.g. HSE06)
   ALGO = ALL         (Electronic Minimisation Algorithm, ALGO\=58)
   TIME = 0.4         (Timestep for IALGO5X)
   PRECFOCK = N           (HF FFT grid)

 POTCAR:    PAW_PBE Ge_d 03Jul2007                
 -----------------------------------------------------------------------------
|                                                                             |
|           W    W    AA    RRRRR   N    N  II  N    N   GGGG   !!!           |
|           W    W   A  A   R    R  NN   N  II  NN   N  G    G  !!!           |
|           W    W  A    A  R    R  N N  N  II  N N  N  G       !!!           |
|           W WW W  AAAAAA  RRRRR   N  N N  II  N  N N  G  GGG   !            |
|           WW  WW  A    A  R   R   N   NN  II  N   NN  G    G                |
|           W    W  A    A  R    R  N    N  II  N    N   GGGG   !!!           |
|                                                                             |
|     For optimal performance we recommend to set                             |
|       NCORE = 2 up to number-of-cores-per-socket                            |
|     NCORE specifies how many cores store one orbital (NPAR=cpu/NCORE).      |
|     This setting can greatly improve the performance of VASP for DFT.       |
|     The default, NCORE=1 might be grossly inefficient on modern             |
|     multi-core architectures or massively parallel machines. Do your        |
|     own testing! More info at https://www.vasp.at/wiki/index.php/NCORE      |
|     Unfortunately you need to use the default for GW and RPA                |
|     calculations (for HF NCORE is supported but not extensively tested      |
|     yet).                                                                   |
|                                                                             |
 -----------------------------------------------------------------------------

 POTCAR:    PAW_PBE Ge_d 03Jul2007                
   VRHFIN =Ge: 3d4s4p                                                                               
   LEXCH  = PE                                                                                      
   EATOM  =  2596.2402 eV,  190.8183 Ry                                                             
                                                                                                    
   TITEL  = PAW_PBE Ge_d 03Jul2007                                                                  
   LULTRA =        F    use ultrasoft PP ?                                                          
   IUNSCR =        1    unscreen: 0-lin 1-nonlin 2-no                                               
   RPACOR =    2.000    partial core radius                                                         
   POMASS =   72.610; ZVAL   =   14.000    mass and valenz                                          
   RCORE  =    2.300    outmost cutoff radius                                                       
   RWIGS  =    2.300; RWIGS  =    1.217    wigner-seitz radius (au A)                               
   ENMAX  =  310.294; ENMIN  =  232.720 eV                                                          
   ICORE  =        3    local potential                                                             
   LCOR   =        T    correct aug charges                                                         
   LPAW   =        T    paw PP                                                                      
   EAUG   =  531.356                                                                                
   DEXC   =    0.000                                                                                
   RMAX   =    2.342    core radius for proj-oper                                                   
   RAUG   =    1.300    factor for augmentation sphere                                              
   RDEP   =    2.318    radius for radial grids                                                     
   RDEPT  =    1.783    core radius for aug-charge                                                  
                                                                                                    
   Atomic configuration                                                                             
    9 entries                                                                                       
     n  l   j            E        occ.                                                              
     1  0  0.50    -10959.8463   2.0000                                                             
     2  0  0.50     -1371.6056   2.0000                                                             
     2  1  1.50     -1198.4791   6.0000                                                             
     3  0  0.50      -168.4733   2.0000                                                             
     3  1  1.50      -115.6019   6.0000                                                             
     3  2  2.50       -29.3106  10.0000                                                             
     4  0  0.50       -11.7309   2.0000                                                             
     4  1  0.50        -3.8952   2.0000                                                             
     4  3  2.50        -4.0817   0.0000                                                             
   Description                                                                                      
     l       E           TYP  RCUT    TYP  RCUT                                                     
     2    -29.3105938     23  2.200                                                                 
     2    -13.6058260     23  2.200                                                                 
     0    -11.7309493     23  2.300                                                                 
     0     -7.4578696     23  2.300                                                                 
     1     -3.8952261     23  2.300                                                                 
     1      6.1178114     23  2.300                                                                 
     3     -1.3605826     23  2.300                                                                 
  local pseudopotential read in
  partial core-charges read in
  partial kinetic energy density read in
  atomic valenz-charges read in
  non local Contribution for L=            2  read in
    real space projection operators read in
  non local Contribution for L=            2  read in
    real space projection operators read in
  non local Contribution for L=            0  read in
    real space projection operators read in
  non local Contribution for L=            0  read in
    real space projection operators read in
  non local Contribution for L=            1  read in
    real space projection operators read in
  non local Contribution for L=            1  read in
    real space projection operators read in
    PAW grid and wavefunctions read in
 
   number of l-projection  operators is LMAX  =            6
   number of lm-projection operators is LMMAX =           18
 
  PAW_PBE Ge_d 03Jul2007                :
 energy of atom  1       EATOM=-2596.2402
 kinetic energy error for atom=    0.0077 (will be added to EATOM!!)
 
 
 POSCAR: Primitive Cell
  positions in direct lattice
  No initial velocities read in
 exchange correlation table for  LEXCH =        8
   RHO(1)=    0.500       N(1)  =     2000
   RHO(2)=  100.500       N(2)  =     4000
 


--------------------------------------------------------------------------------------------------------


 ion  position               nearest neighbor table
   1  0.500  0.500  0.500-   2 2.45   2 2.45   2 2.45   2 2.45
   2  0.750  0.750  0.750-   1 2.45   1 2.45   1 2.45   1 2.45
 
  LATTYP: Found a face centered cubic cell.
 ALAT       =     5.6575400000
  
  Lattice vectors:
  
 A1 = (   0.0000000000,   2.8287700000,   2.8287700000)
 A2 = (   2.8287700000,   0.0000000000,   2.8287700000)
 A3 = (   2.8287700000,   2.8287700000,   0.0000000000)


Analysis of symmetry for initial positions (statically):
=====================================================================
 Subroutine PRICEL returns:
 Original cell was already a primitive cell.
 

 Routine SETGRP: Setting up the symmetry group for a 
 face centered cubic supercell.


 Subroutine GETGRP returns: Found 48 space group operations
 (whereof 24 operations were pure point group operations)
 out of a pool of 48 trial point group operations.


The static configuration has the point symmetry T_d .
 The point group associated with its full space group is O_h .


Analysis of symmetry for dynamics (positions and initial velocities):
=====================================================================
 Subroutine PRICEL returns:
 Original cell was already a primitive cell.
 

 Routine SETGRP: Setting up the symmetry group for a 
 face centered cubic supercell.


 Subroutine GETGRP returns: Found 48 space group operations
 (whereof 24 operations were pure point group operations)
 out of a pool of 48 trial point group operations.


The dynamic configuration has the point symmetry T_d .
 The point group associated with its full space group is O_h .


 Subroutine INISYM returns: Found 48 space group operations
 (whereof 24 operations are pure point group operations),
 and found     1 'primitive' translations


----------------------------------------------------------------------------------------

                                     Primitive cell                                     

  volume of cell :      45.2713

  direct lattice vectors                    reciprocal lattice vectors
     0.000000000  2.828770000  2.828770000    -0.176755268  0.176755268  0.176755268
     2.828770000  0.000000000  2.828770000     0.176755268 -0.176755268  0.176755268
     2.828770000  2.828770000  0.000000000     0.176755268  0.176755268 -0.176755268

  length of vectors
     4.000484899  4.000484899  4.000484899     0.306149105  0.306149105  0.306149105

  position of ions in fractional coordinates (direct lattice)
     0.500000000  0.500000000  0.500000000
     0.750000000  0.750000000  0.750000000

  ion indices of the primitive-cell ions
   primitive index   ion index
                 1           1
                 2           2

----------------------------------------------------------------------------------------

 
 
 KPOINTS: 0.030  10  10  10   47  0.050   71    4 

Read explicit list of k-points.

 Found    118 k-points:

 Following reciprocal coordinates:
            Coordinates               Weight
  0.000000  0.000000  0.000000      0.001000
  0.100000  0.000000  0.000000      0.008000
  0.200000  0.000000  0.000000      0.008000
  0.300000  0.000000  0.000000      0.008000
  0.400000  0.000000  0.000000      0.008000
  0.500000  0.000000  0.000000      0.004000
  0.100000  0.100000  0.000000      0.006000
  0.200000  0.100000  0.000000      0.024000
  0.300000  0.100000  0.000000      0.024000
  0.400000  0.100000  0.000000      0.024000
  0.500000  0.100000  0.000000      0.024000
 -0.400000  0.100000  0.000000      0.024000
 -0.300000  0.100000  0.000000      0.024000
 -0.200000  0.100000  0.000000      0.024000
 -0.100000  0.100000  0.000000      0.012000
  0.200000  0.200000  0.000000      0.006000
  0.300000  0.200000  0.000000      0.024000
  0.400000  0.200000  0.000000      0.024000
  0.500000  0.200000  0.000000      0.024000
 -0.400000  0.200000  0.000000      0.024000
 -0.300000  0.200000  0.000000      0.024000
 -0.200000  0.200000  0.000000      0.012000
  0.300000  0.300000  0.000000      0.006000
  0.400000  0.300000  0.000000      0.024000
  0.500000  0.300000  0.000000      0.024000
 -0.400000  0.300000  0.000000      0.024000
 -0.300000  0.300000  0.000000      0.012000
  0.400000  0.400000  0.000000      0.006000
  0.500000  0.400000  0.000000      0.024000
 -0.400000  0.400000  0.000000      0.012000
  0.500000  0.500000  0.000000      0.003000
  0.300000  0.200000  0.100000      0.024000
  0.400000  0.200000  0.100000      0.048000
  0.500000  0.200000  0.100000      0.048000
 -0.400000  0.200000  0.100000      0.024000
  0.400000  0.300000  0.100000      0.024000
  0.500000  0.300000  0.100000      0.048000
 -0.400000  0.300000  0.100000      0.048000
 -0.300000  0.300000  0.100000      0.048000
 -0.200000  0.300000  0.100000      0.024000
  0.500000  0.400000  0.100000      0.024000
 -0.400000  0.400000  0.100000      0.048000
 -0.300000  0.400000  0.100000      0.024000
 -0.400000  0.500000  0.100000      0.012000
 -0.400000  0.400000  0.200000      0.024000
 -0.300000  0.400000  0.200000      0.024000
 -0.300000  0.500000  0.200000      0.012000
  0.500000  0.500000  0.500000      0.000000
  0.472222  0.472222  0.472222      0.000000
  0.444444  0.444444  0.444444      0.000000
  0.416667  0.416667  0.416667      0.000000
  0.388889  0.388889  0.388889      0.000000
  0.361111  0.361111  0.361111      0.000000
  0.333333  0.333333  0.333333      0.000000
  0.305556  0.305556  0.305556      0.000000
  0.277778  0.277778  0.277778      0.000000
  0.250000  0.250000  0.250000      0.000000
  0.222222  0.222222  0.222222      0.000000
  0.194444  0.194444  0.194444      0.000000
  0.166667  0.166667  0.166667      0.000000
  0.138889  0.138889  0.138889      0.000000
  0.111111  0.111111  0.111111      0.000000
  0.083333  0.083333  0.083333      0.000000
  0.055556  0.055556  0.055556      0.000000
  0.027778  0.027778  0.027778      0.000000
  0.000000  0.000000  0.000000      0.000000
  0.000000  0.000000  0.000000      0.000000
  0.023810  0.000000  0.023810      0.000000
  0.047619  0.000000  0.047619      0.000000
  0.071429  0.000000  0.071429      0.000000
  0.095238  0.000000  0.095238      0.000000
  0.119048  0.000000  0.119048      0.000000
  0.142857  0.000000  0.142857      0.000000
  0.166667  0.000000  0.166667      0.000000
  0.190476  0.000000  0.190476      0.000000
  0.214286  0.000000  0.214286      0.000000
  0.238095  0.000000  0.238095      0.000000
  0.261905  0.000000  0.261905      0.000000
  0.285714  0.000000  0.285714      0.000000
  0.309524  0.000000  0.309524      0.000000
  0.333333  0.000000  0.333333      0.000000
  0.357143  0.000000  0.357143      0.000000
  0.380952  0.000000  0.380952      0.000000
  0.404762  0.000000  0.404762      0.000000
  0.428571  0.000000  0.428571      0.000000
  0.452381  0.000000  0.452381      0.000000
  0.476190  0.000000  0.476190      0.000000
  0.500000  0.000000  0.500000      0.000000
  0.500000  0.000000  0.500000      0.000000
  0.520833  0.041667  0.520833      0.000000
  0.541667  0.083333  0.541667      0.000000
  0.562500  0.125000  0.562500      0.000000
  0.583333  0.166667  0.583333      0.000000
  0.604167  0.208333  0.604167      0.000000
  0.625000  0.250000  0.625000      0.000000
  0.375000  0.375000  0.750000      0.000000
  0.357955  0.357955  0.715909      0.000000
  0.340909  0.340909  0.681818      0.000000
  0.323864  0.323864  0.647727      0.000000
  0.306818  0.306818  0.613636      0.000000
  0.289773  0.289773  0.579545      0.000000
  0.272727  0.272727  0.545455      0.000000
  0.255682  0.255682  0.511364      0.000000
  0.238636  0.238636  0.477273      0.000000
  0.221591  0.221591  0.443182      0.000000
  0.204545  0.204545  0.409091      0.000000
  0.187500  0.187500  0.375000      0.000000
  0.170455  0.170455  0.340909      0.000000
  0.153409  0.153409  0.306818      0.000000
  0.136364  0.136364  0.272727      0.000000
  0.119318  0.119318  0.238636      0.000000
  0.102273  0.102273  0.204545      0.000000
  0.085227  0.085227  0.170455      0.000000
  0.068182  0.068182  0.136364      0.000000
  0.051136  0.051136  0.102273      0.000000
  0.034091  0.034091  0.068182      0.000000
  0.017045  0.017045  0.034091      0.000000
  0.000000  0.000000  0.000000      0.000000

 Following cartesian coordinates:
            Coordinates               Weight
  0.000000  0.000000  0.000000      0.001000
 -0.017676  0.017676  0.017676      0.008000
 -0.035351  0.035351  0.035351      0.008000
 -0.053027  0.053027  0.053027      0.008000
 -0.070702  0.070702  0.070702      0.008000
 -0.088378  0.088378  0.088378      0.004000
  0.000000  0.000000  0.035351      0.006000
 -0.017676  0.017676  0.053027      0.024000
 -0.035351  0.035351  0.070702      0.024000
 -0.053027  0.053027  0.088378      0.024000
 -0.070702  0.070702  0.106053      0.024000
  0.088378 -0.088378 -0.053027      0.024000
  0.070702 -0.070702 -0.035351      0.024000
  0.053027 -0.053027 -0.017676      0.024000
  0.035351 -0.035351  0.000000      0.012000
  0.000000  0.000000  0.070702      0.006000
 -0.017676  0.017676  0.088378      0.024000
 -0.035351  0.035351  0.106053      0.024000
 -0.053027  0.053027  0.123729      0.024000
  0.106053 -0.106053 -0.035351      0.024000
  0.088378 -0.088378 -0.017676      0.024000
  0.070702 -0.070702  0.000000      0.012000
  0.000000  0.000000  0.106053      0.006000
 -0.017676  0.017676  0.123729      0.024000
 -0.035351  0.035351  0.141404      0.024000
  0.123729 -0.123729 -0.017676      0.024000
  0.106053 -0.106053  0.000000      0.012000
  0.000000  0.000000  0.141404      0.006000
 -0.017676  0.017676  0.159080      0.024000
  0.141404 -0.141404  0.000000      0.012000
  0.000000  0.000000  0.176755      0.003000
 -0.000000  0.035351  0.070702      0.024000
 -0.017676  0.053027  0.088378      0.048000
 -0.035351  0.070702  0.106053      0.048000
  0.123729 -0.088378 -0.053027      0.024000
  0.000000  0.035351  0.106053      0.024000
 -0.017676  0.053027  0.123729      0.048000
  0.141404 -0.106053 -0.035351      0.048000
  0.123729 -0.088378 -0.017676      0.048000
  0.106053 -0.070702  0.000000      0.024000
 -0.000000  0.035351  0.141404      0.024000
  0.159080 -0.123729 -0.017676      0.048000
  0.141404 -0.106053 -0.000000      0.024000
  0.176755 -0.141404  0.000000      0.012000
  0.176755 -0.106053 -0.035351      0.024000
  0.159080 -0.088378 -0.017676      0.024000
  0.176755 -0.106053  0.000000      0.012000
  0.088378  0.088378  0.088378      0.000000
  0.083468  0.083468  0.083468      0.000000
  0.078558  0.078558  0.078558      0.000000
  0.073648  0.073648  0.073648      0.000000
  0.068738  0.068738  0.068738      0.000000
  0.063828  0.063828  0.063828      0.000000
  0.058918  0.058918  0.058918      0.000000
  0.054009  0.054009  0.054009      0.000000
  0.049099  0.049099  0.049099      0.000000
  0.044189  0.044189  0.044189      0.000000
  0.039279  0.039279  0.039279      0.000000
  0.034369  0.034369  0.034369      0.000000
  0.029459  0.029459  0.029459      0.000000
  0.024549  0.024549  0.024549      0.000000
  0.019639  0.019639  0.019639      0.000000
  0.014730  0.014730  0.014730      0.000000
  0.009820  0.009820  0.009820      0.000000
  0.004910  0.004910  0.004910      0.000000
  0.000000  0.000000  0.000000      0.000000
  0.000000  0.000000  0.000000      0.000000
  0.000000  0.008417  0.000000      0.000000
  0.000000  0.016834  0.000000      0.000000
  0.000000  0.025251  0.000000      0.000000
  0.000000  0.033668  0.000000      0.000000
  0.000000  0.042085  0.000000      0.000000
  0.000000  0.050502  0.000000      0.000000
  0.000000  0.058918  0.000000      0.000000
  0.000000  0.067335  0.000000      0.000000
  0.000000  0.075752  0.000000      0.000000
  0.000000  0.084169  0.000000      0.000000
  0.000000  0.092586  0.000000      0.000000
  0.000000  0.101003  0.000000      0.000000
  0.000000  0.109420  0.000000      0.000000
  0.000000  0.117837  0.000000      0.000000
  0.000000  0.126254  0.000000      0.000000
  0.000000  0.134671  0.000000      0.000000
  0.000000  0.143088  0.000000      0.000000
  0.000000  0.151505  0.000000      0.000000
  0.000000  0.159921  0.000000      0.000000
  0.000000  0.168338  0.000000      0.000000
  0.000000  0.176755  0.000000      0.000000
  0.000000  0.176755  0.000000      0.000000
  0.007365  0.176755  0.007365      0.000000
  0.014730  0.176755  0.014730      0.000000
  0.022094  0.176755  0.022094      0.000000
  0.029459  0.176755  0.029459      0.000000
  0.036824  0.176755  0.036824      0.000000
  0.044189  0.176755  0.044189      0.000000
  0.132566  0.132566  0.000000      0.000000
  0.126541  0.126541  0.000000      0.000000
  0.120515  0.120515  0.000000      0.000000
  0.114489  0.114489  0.000000      0.000000
  0.108463  0.108463  0.000000      0.000000
  0.102438  0.102438  0.000000      0.000000
  0.096412  0.096412 -0.000000      0.000000
  0.090386  0.090386  0.000000      0.000000
  0.084360  0.084360 -0.000000      0.000000
  0.078335  0.078335  0.000000      0.000000
  0.072309  0.072309 -0.000000      0.000000
  0.066283  0.066283  0.000000      0.000000
  0.060257  0.060257  0.000000      0.000000
  0.054232  0.054232  0.000000      0.000000
  0.048206  0.048206  0.000000      0.000000
  0.042180  0.042180  0.000000      0.000000
  0.036154  0.036154  0.000000      0.000000
  0.030129  0.030129 -0.000000      0.000000
  0.024103  0.024103  0.000000      0.000000
  0.018077  0.018077 -0.000000      0.000000
  0.012051  0.012051  0.000000      0.000000
  0.006026  0.006026 -0.000000      0.000000
  0.000000  0.000000  0.000000      0.000000
 
 
 Subroutine IBZKPT_HF returns following result:
 ==============================================
 
 Found   1071 k-points in 1st BZ
 the following   1071 k-points will be used (e.g. in the exchange kernel)
 Following reciprocal coordinates:   # in IRBZ
  0.000000  0.000000  0.000000    0.00100000   1 t-inv F
  0.100000  0.000000  0.000000    0.00100000   2 t-inv F
  0.200000  0.000000  0.000000    0.00100000   3 t-inv F
  0.300000  0.000000  0.000000    0.00100000   4 t-inv F
  0.400000  0.000000  0.000000    0.00100000   5 t-inv F
  0.500000  0.000000  0.000000    0.00100000   6 t-inv F
  0.100000  0.100000  0.000000    0.00100000   7 t-inv F
  0.200000  0.100000  0.000000    0.00100000   8 t-inv F
  0.300000  0.100000  0.000000    0.00100000   9 t-inv F
  0.400000  0.100000  0.000000    0.00100000  10 t-inv F
  0.500000  0.100000  0.000000    0.00100000  11 t-inv F
 -0.400000  0.100000  0.000000    0.00100000  12 t-inv F
 -0.300000  0.100000  0.000000    0.00100000  13 t-inv F
 -0.200000  0.100000  0.000000    0.00100000  14 t-inv F
 -0.100000  0.100000  0.000000    0.00100000  15 t-inv F
  0.200000  0.200000  0.000000    0.00100000  16 t-inv F
  0.300000  0.200000  0.000000    0.00100000  17 t-inv F
  0.400000  0.200000  0.000000    0.00100000  18 t-inv F
  0.500000  0.200000  0.000000    0.00100000  19 t-inv F
 -0.400000  0.200000  0.000000    0.00100000  20 t-inv F
 -0.300000  0.200000  0.000000    0.00100000  21 t-inv F
 -0.200000  0.200000  0.000000    0.00100000  22 t-inv F
  0.300000  0.300000  0.000000    0.00100000  23 t-inv F
  0.400000  0.300000  0.000000    0.00100000  24 t-inv F
  0.500000  0.300000  0.000000    0.00100000  25 t-inv F
 -0.400000  0.300000  0.000000    0.00100000  26 t-inv F
 -0.300000  0.300000  0.000000    0.00100000  27 t-inv F
  0.400000  0.400000  0.000000    0.00100000  28 t-inv F
  0.500000  0.400000  0.000000    0.00100000  29 t-inv F
 -0.400000  0.400000  0.000000    0.00100000  30 t-inv F
  0.500000  0.500000  0.000000    0.00100000  31 t-inv F
  0.300000  0.200000  0.100000    0.00100000  32 t-inv F
  0.400000  0.200000  0.100000    0.00100000  33 t-inv F
  0.500000  0.200000  0.100000    0.00100000  34 t-inv F
 -0.400000  0.200000  0.100000    0.00100000  35 t-inv F
  0.400000  0.300000  0.100000    0.00100000  36 t-inv F
  0.500000  0.300000  0.100000    0.00100000  37 t-inv F
 -0.400000  0.300000  0.100000    0.00100000  38 t-inv F
 -0.300000  0.300000  0.100000    0.00100000  39 t-inv F
 -0.200000  0.300000  0.100000    0.00100000  40 t-inv F
  0.500000  0.400000  0.100000    0.00100000  41 t-inv F
 -0.400000  0.400000  0.100000    0.00100000  42 t-inv F
 -0.300000  0.400000  0.100000    0.00100000  43 t-inv F
 -0.400000  0.500000  0.100000    0.00100000  44 t-inv F
 -0.400000  0.400000  0.200000    0.00100000  45 t-inv F
 -0.300000  0.400000  0.200000    0.00100000  46 t-inv F
 -0.300000  0.500000  0.200000    0.00100000  47 t-inv F
  0.500000  0.500000  0.500000    0.00000000  48 t-inv F
  0.472222  0.472222  0.472222    0.00000000  49 t-inv F
  0.444444  0.444444  0.444444    0.00000000  50 t-inv F
  0.416667  0.416667  0.416667    0.00000000  51 t-inv F
  0.388889  0.388889  0.388889    0.00000000  52 t-inv F
  0.361111  0.361111  0.361111    0.00000000  53 t-inv F
  0.333333  0.333333  0.333333    0.00000000  54 t-inv F
  0.305556  0.305556  0.305556    0.00000000  55 t-inv F
  0.277778  0.277778  0.277778    0.00000000  56 t-inv F
  0.250000  0.250000  0.250000    0.00000000  57 t-inv F
  0.222222  0.222222  0.222222    0.00000000  58 t-inv F
  0.194444  0.194444  0.194444    0.00000000  59 t-inv F
  0.166667  0.166667  0.166667    0.00000000  60 t-inv F
  0.138889  0.138889  0.138889    0.00000000  61 t-inv F
  0.111111  0.111111  0.111111    0.00000000  62 t-inv F
  0.083333  0.083333  0.083333    0.00000000  63 t-inv F
  0.055556  0.055556  0.055556    0.00000000  64 t-inv F
  0.027778  0.027778  0.027778    0.00000000  65 t-inv F
  0.000000  0.000000  0.000000    0.00000000  66 t-inv F
  0.000000  0.000000  0.000000    0.00000000  67 t-inv F
  0.023810  0.000000  0.023810    0.00000000  68 t-inv F
  0.047619  0.000000  0.047619    0.00000000  69 t-inv F
  0.071429  0.000000  0.071429    0.00000000  70 t-inv F
  0.095238  0.000000  0.095238    0.00000000  71 t-inv F
  0.119048  0.000000  0.119048    0.00000000  72 t-inv F
  0.142857  0.000000  0.142857    0.00000000  73 t-inv F
  0.166667  0.000000  0.166667    0.00000000  74 t-inv F
  0.190476  0.000000  0.190476    0.00000000  75 t-inv F
  0.214286  0.000000  0.214286    0.00000000  76 t-inv F
  0.238095  0.000000  0.238095    0.00000000  77 t-inv F
  0.261905  0.000000  0.261905    0.00000000  78 t-inv F
  0.285714  0.000000  0.285714    0.00000000  79 t-inv F
  0.309524  0.000000  0.309524    0.00000000  80 t-inv F
  0.333333  0.000000  0.333333    0.00000000  81 t-inv F
  0.357143  0.000000  0.357143    0.00000000  82 t-inv F
  0.380952  0.000000  0.380952    0.00000000  83 t-inv F
  0.404762  0.000000  0.404762    0.00000000  84 t-inv F
  0.428571  0.000000  0.428571    0.00000000  85 t-inv F
  0.452381  0.000000  0.452381    0.00000000  86 t-inv F
  0.476190  0.000000  0.476190    0.00000000  87 t-inv F
  0.500000  0.000000  0.500000    0.00000000  88 t-inv F
  0.500000  0.000000  0.500000    0.00000000  89 t-inv F
  0.520833  0.041667  0.520833    0.00000000  90 t-inv F
  0.541667  0.083333  0.541667    0.00000000  91 t-inv F
  0.562500  0.125000  0.562500    0.00000000  92 t-inv F
  0.583333  0.166667  0.583333    0.00000000  93 t-inv F
  0.604167  0.208333  0.604167    0.00000000  94 t-inv F
  0.625000  0.250000  0.625000    0.00000000  95 t-inv F
  0.375000  0.375000  0.750000    0.00000000  96 t-inv F
  0.357955  0.357955  0.715909    0.00000000  97 t-inv F
  0.340909  0.340909  0.681818    0.00000000  98 t-inv F
  0.323864  0.323864  0.647727    0.00000000  99 t-inv F
  0.306818  0.306818  0.613636    0.00000000 100 t-inv F
  0.289773  0.289773  0.579545    0.00000000 101 t-inv F
  0.272727  0.272727  0.545455    0.00000000 102 t-inv F
  0.255682  0.255682  0.511364    0.00000000 103 t-inv F
  0.238636  0.238636  0.477273    0.00000000 104 t-inv F
  0.221591  0.221591  0.443182    0.00000000 105 t-inv F
  0.204545  0.204545  0.409091    0.00000000 106 t-inv F
  0.187500  0.187500  0.375000    0.00000000 107 t-inv F
  0.170455  0.170455  0.340909    0.00000000 108 t-inv F
  0.153409  0.153409  0.306818    0.00000000 109 t-inv F
  0.136364  0.136364  0.272727    0.00000000 110 t-inv F
  0.119318  0.119318  0.238636    0.00000000 111 t-inv F
  0.102273  0.102273  0.204545    0.00000000 112 t-inv F
  0.085227  0.085227  0.170455    0.00000000 113 t-inv F
  0.068182  0.068182  0.136364    0.00000000 114 t-inv F
  0.051136  0.051136  0.102273    0.00000000 115 t-inv F
  0.034091  0.034091  0.068182    0.00000000 116 t-inv F
  0.017045  0.017045  0.034091    0.00000000 117 t-inv F
  0.000000  0.000000  0.000000    0.00000000 118 t-inv F
  0.000000  0.100000  0.000000    0.00100000   2 t-inv F
  0.000000  0.000000  0.100000    0.00100000   2 t-inv F
 -0.100000 -0.100000 -0.100000    0.00100000   2 t-inv F
 -0.100000  0.000000  0.000000    0.00100000   2 t-inv F
  0.000000 -0.100000  0.000000    0.00100000   2 t-inv F
  0.000000  0.000000 -0.100000    0.00100000   2 t-inv F
  0.100000  0.100000  0.100000    0.00100000   2 t-inv F
  0.000000  0.200000  0.000000    0.00100000   3 t-inv F
  0.000000  0.000000  0.200000    0.00100000   3 t-inv F
 -0.200000 -0.200000 -0.200000    0.00100000   3 t-inv F
 -0.200000  0.000000  0.000000    0.00100000   3 t-inv F
  0.000000 -0.200000  0.000000    0.00100000   3 t-inv F
  0.000000  0.000000 -0.200000    0.00100000   3 t-inv F
  0.200000  0.200000  0.200000    0.00100000   3 t-inv F
  0.000000  0.300000  0.000000    0.00100000   4 t-inv F
  0.000000  0.000000  0.300000    0.00100000   4 t-inv F
 -0.300000 -0.300000 -0.300000    0.00100000   4 t-inv F
 -0.300000  0.000000  0.000000    0.00100000   4 t-inv F
  0.000000 -0.300000  0.000000    0.00100000   4 t-inv F
  0.000000  0.000000 -0.300000    0.00100000   4 t-inv F
  0.300000  0.300000  0.300000    0.00100000   4 t-inv F
  0.000000  0.400000  0.000000    0.00100000   5 t-inv F
  0.000000  0.000000  0.400000    0.00100000   5 t-inv F
 -0.400000 -0.400000 -0.400000    0.00100000   5 t-inv F
 -0.400000  0.000000  0.000000    0.00100000   5 t-inv F
  0.000000 -0.400000  0.000000    0.00100000   5 t-inv F
  0.000000  0.000000 -0.400000    0.00100000   5 t-inv F
  0.400000  0.400000  0.400000    0.00100000   5 t-inv F
  0.000000  0.500000  0.000000    0.00100000   6 t-inv F
  0.000000  0.000000  0.500000    0.00100000   6 t-inv F
 -0.500000 -0.500000 -0.500000    0.00100000   6 t-inv F
  0.000000  0.100000  0.100000    0.00100000   7 t-inv F
  0.100000  0.000000  0.100000    0.00100000   7 t-inv F
 -0.100000 -0.100000  0.000000    0.00100000   7 t-inv F
 -0.100000  0.000000 -0.100000    0.00100000   7 t-inv F
  0.000000 -0.100000 -0.100000    0.00100000   7 t-inv F
  0.000000  0.200000  0.100000    0.00100000   8 t-inv F
  0.100000  0.000000  0.200000    0.00100000   8 t-inv F
 -0.100000 -0.100000  0.100000    0.00100000   8 t-inv F
 -0.200000 -0.100000 -0.200000    0.00100000   8 t-inv F
  0.100000  0.200000  0.000000    0.00100000   8 t-inv F
  0.100000 -0.100000 -0.100000    0.00100000   8 t-inv F
 -0.200000 -0.200000 -0.100000    0.00100000   8 t-inv F
  0.000000  0.100000  0.200000    0.00100000   8 t-inv F
 -0.100000  0.100000 -0.100000    0.00100000   8 t-inv F
 -0.100000 -0.200000 -0.200000    0.00100000   8 t-inv F
  0.200000  0.000000  0.100000    0.00100000   8 t-inv F
 -0.200000 -0.100000  0.000000    0.00100000   8 t-inv F
  0.000000 -0.200000 -0.100000    0.00100000   8 t-inv F
 -0.100000  0.000000 -0.200000    0.00100000   8 t-inv F
  0.100000  0.100000 -0.100000    0.00100000   8 t-inv F
  0.200000  0.100000  0.200000    0.00100000   8 t-inv F
 -0.100000 -0.200000  0.000000    0.00100000   8 t-inv F
 -0.100000  0.100000  0.100000    0.00100000   8 t-inv F
  0.200000  0.200000  0.100000    0.00100000   8 t-inv F
  0.000000 -0.100000 -0.200000    0.00100000   8 t-inv F
  0.100000 -0.100000  0.100000    0.00100000   8 t-inv F
  0.100000  0.200000  0.200000    0.00100000   8 t-inv F
 -0.200000  0.000000 -0.100000    0.00100000   8 t-inv F
  0.000000  0.300000  0.100000    0.00100000   9 t-inv F
  0.100000  0.000000  0.300000    0.00100000   9 t-inv F
 -0.100000 -0.100000  0.200000    0.00100000   9 t-inv F
 -0.300000 -0.200000 -0.300000    0.00100000   9 t-inv F
  0.100000  0.300000  0.000000    0.00100000   9 t-inv F
  0.200000 -0.100000 -0.100000    0.00100000   9 t-inv F
 -0.300000 -0.300000 -0.200000    0.00100000   9 t-inv F
  0.000000  0.100000  0.300000    0.00100000   9 t-inv F
 -0.100000  0.200000 -0.100000    0.00100000   9 t-inv F
 -0.200000 -0.300000 -0.300000    0.00100000   9 t-inv F
  0.300000  0.000000  0.100000    0.00100000   9 t-inv F
 -0.300000 -0.100000  0.000000    0.00100000   9 t-inv F
  0.000000 -0.300000 -0.100000    0.00100000   9 t-inv F
 -0.100000  0.000000 -0.300000    0.00100000   9 t-inv F
  0.100000  0.100000 -0.200000    0.00100000   9 t-inv F
  0.300000  0.200000  0.300000    0.00100000   9 t-inv F
 -0.100000 -0.300000  0.000000    0.00100000   9 t-inv F
 -0.200000  0.100000  0.100000    0.00100000   9 t-inv F
  0.300000  0.300000  0.200000    0.00100000   9 t-inv F
  0.000000 -0.100000 -0.300000    0.00100000   9 t-inv F
  0.100000 -0.200000  0.100000    0.00100000   9 t-inv F
  0.200000  0.300000  0.300000    0.00100000   9 t-inv F
 -0.300000  0.000000 -0.100000    0.00100000   9 t-inv F
  0.000000  0.400000  0.100000    0.00100000  10 t-inv F
  0.100000  0.000000  0.400000    0.00100000  10 t-inv F
 -0.100000 -0.100000  0.300000    0.00100000  10 t-inv F
 -0.400000 -0.300000 -0.400000    0.00100000  10 t-inv F
  0.100000  0.400000  0.000000    0.00100000  10 t-inv F
  0.300000 -0.100000 -0.100000    0.00100000  10 t-inv F
 -0.400000 -0.400000 -0.300000    0.00100000  10 t-inv F
  0.000000  0.100000  0.400000    0.00100000  10 t-inv F
 -0.100000  0.300000 -0.100000    0.00100000  10 t-inv F
 -0.300000 -0.400000 -0.400000    0.00100000  10 t-inv F
  0.400000  0.000000  0.100000    0.00100000  10 t-inv F
 -0.400000 -0.100000  0.000000    0.00100000  10 t-inv F
  0.000000 -0.400000 -0.100000    0.00100000  10 t-inv F
 -0.100000  0.000000 -0.400000    0.00100000  10 t-inv F
  0.100000  0.100000 -0.300000    0.00100000  10 t-inv F
  0.400000  0.300000  0.400000    0.00100000  10 t-inv F
 -0.100000 -0.400000  0.000000    0.00100000  10 t-inv F
 -0.300000  0.100000  0.100000    0.00100000  10 t-inv F
  0.400000  0.400000  0.300000    0.00100000  10 t-inv F
  0.000000 -0.100000 -0.400000    0.00100000  10 t-inv F
  0.100000 -0.300000  0.100000    0.00100000  10 t-inv F
  0.300000  0.400000  0.400000    0.00100000  10 t-inv F
 -0.400000  0.000000 -0.100000    0.00100000  10 t-inv F
  0.000000  0.500000  0.100000    0.00100000  11 t-inv F
  0.100000  0.000000  0.500000    0.00100000  11 t-inv F
 -0.100000 -0.100000  0.400000    0.00100000  11 t-inv F
 -0.500000 -0.400000 -0.500000    0.00100000  11 t-inv F
  0.100000  0.500000  0.000000    0.00100000  11 t-inv F
  0.400000 -0.100000 -0.100000    0.00100000  11 t-inv F
 -0.500000 -0.500000 -0.400000    0.00100000  11 t-inv F
  0.000000  0.100000  0.500000    0.00100000  11 t-inv F
 -0.100000  0.400000 -0.100000    0.00100000  11 t-inv F
 -0.400000 -0.500000 -0.500000    0.00100000  11 t-inv F
  0.500000  0.000000  0.100000    0.00100000  11 t-inv F
 -0.500000 -0.100000  0.000000    0.00100000  11 t-inv F
  0.000000 -0.500000 -0.100000    0.00100000  11 t-inv F
 -0.100000  0.000000 -0.500000    0.00100000  11 t-inv F
  0.100000  0.100000 -0.400000    0.00100000  11 t-inv F
  0.500000  0.400000  0.500000    0.00100000  11 t-inv F
 -0.100000 -0.500000  0.000000    0.00100000  11 t-inv F
 -0.400000  0.100000  0.100000    0.00100000  11 t-inv F
  0.500000  0.500000  0.400000    0.00100000  11 t-inv F
  0.000000 -0.100000 -0.500000    0.00100000  11 t-inv F
  0.100000 -0.400000  0.100000    0.00100000  11 t-inv F
  0.400000  0.500000  0.500000    0.00100000  11 t-inv F
 -0.500000  0.000000 -0.100000    0.00100000  11 t-inv F
  0.000000 -0.400000  0.100000    0.00100000  12 t-inv F
  0.100000  0.000000 -0.400000    0.00100000  12 t-inv F
 -0.100000 -0.100000 -0.500000    0.00100000  12 t-inv F
  0.400000  0.500000  0.400000    0.00100000  12 t-inv F
  0.100000 -0.400000  0.000000    0.00100000  12 t-inv F
 -0.500000 -0.100000 -0.100000    0.00100000  12 t-inv F
  0.400000  0.400000  0.500000    0.00100000  12 t-inv F
  0.000000  0.100000 -0.400000    0.00100000  12 t-inv F
 -0.100000 -0.500000 -0.100000    0.00100000  12 t-inv F
  0.500000  0.400000  0.400000    0.00100000  12 t-inv F
 -0.400000  0.000000  0.100000    0.00100000  12 t-inv F
  0.400000 -0.100000  0.000000    0.00100000  12 t-inv F
  0.000000  0.400000 -0.100000    0.00100000  12 t-inv F
 -0.100000  0.000000  0.400000    0.00100000  12 t-inv F
  0.100000  0.100000  0.500000    0.00100000  12 t-inv F
 -0.400000 -0.500000 -0.400000    0.00100000  12 t-inv F
 -0.100000  0.400000  0.000000    0.00100000  12 t-inv F
  0.500000  0.100000  0.100000    0.00100000  12 t-inv F
 -0.400000 -0.400000 -0.500000    0.00100000  12 t-inv F
  0.000000 -0.100000  0.400000    0.00100000  12 t-inv F
  0.100000  0.500000  0.100000    0.00100000  12 t-inv F
 -0.500000 -0.400000 -0.400000    0.00100000  12 t-inv F
  0.400000  0.000000 -0.100000    0.00100000  12 t-inv F
  0.000000 -0.300000  0.100000    0.00100000  13 t-inv F
  0.100000  0.000000 -0.300000    0.00100000  13 t-inv F
 -0.100000 -0.100000 -0.400000    0.00100000  13 t-inv F
  0.300000  0.400000  0.300000    0.00100000  13 t-inv F
  0.100000 -0.300000  0.000000    0.00100000  13 t-inv F
 -0.400000 -0.100000 -0.100000    0.00100000  13 t-inv F
  0.300000  0.300000  0.400000    0.00100000  13 t-inv F
  0.000000  0.100000 -0.300000    0.00100000  13 t-inv F
 -0.100000 -0.400000 -0.100000    0.00100000  13 t-inv F
  0.400000  0.300000  0.300000    0.00100000  13 t-inv F
 -0.300000  0.000000  0.100000    0.00100000  13 t-inv F
  0.300000 -0.100000  0.000000    0.00100000  13 t-inv F
  0.000000  0.300000 -0.100000    0.00100000  13 t-inv F
 -0.100000  0.000000  0.300000    0.00100000  13 t-inv F
  0.100000  0.100000  0.400000    0.00100000  13 t-inv F
 -0.300000 -0.400000 -0.300000    0.00100000  13 t-inv F
 -0.100000  0.300000  0.000000    0.00100000  13 t-inv F
  0.400000  0.100000  0.100000    0.00100000  13 t-inv F
 -0.300000 -0.300000 -0.400000    0.00100000  13 t-inv F
  0.000000 -0.100000  0.300000    0.00100000  13 t-inv F
  0.100000  0.400000  0.100000    0.00100000  13 t-inv F
 -0.400000 -0.300000 -0.300000    0.00100000  13 t-inv F
  0.300000  0.000000 -0.100000    0.00100000  13 t-inv F
  0.000000 -0.200000  0.100000    0.00100000  14 t-inv F
  0.100000  0.000000 -0.200000    0.00100000  14 t-inv F
 -0.100000 -0.100000 -0.300000    0.00100000  14 t-inv F
  0.200000  0.300000  0.200000    0.00100000  14 t-inv F
  0.100000 -0.200000  0.000000    0.00100000  14 t-inv F
 -0.300000 -0.100000 -0.100000    0.00100000  14 t-inv F
  0.200000  0.200000  0.300000    0.00100000  14 t-inv F
  0.000000  0.100000 -0.200000    0.00100000  14 t-inv F
 -0.100000 -0.300000 -0.100000    0.00100000  14 t-inv F
  0.300000  0.200000  0.200000    0.00100000  14 t-inv F
 -0.200000  0.000000  0.100000    0.00100000  14 t-inv F
  0.200000 -0.100000  0.000000    0.00100000  14 t-inv F
  0.000000  0.200000 -0.100000    0.00100000  14 t-inv F
 -0.100000  0.000000  0.200000    0.00100000  14 t-inv F
  0.100000  0.100000  0.300000    0.00100000  14 t-inv F
 -0.200000 -0.300000 -0.200000    0.00100000  14 t-inv F
 -0.100000  0.200000  0.000000    0.00100000  14 t-inv F
  0.300000  0.100000  0.100000    0.00100000  14 t-inv F
 -0.200000 -0.200000 -0.300000    0.00100000  14 t-inv F
  0.000000 -0.100000  0.200000    0.00100000  14 t-inv F
  0.100000  0.300000  0.100000    0.00100000  14 t-inv F
 -0.300000 -0.200000 -0.200000    0.00100000  14 t-inv F
  0.200000  0.000000 -0.100000    0.00100000  14 t-inv F
  0.000000 -0.100000  0.100000    0.00100000  15 t-inv F
  0.100000  0.000000 -0.100000    0.00100000  15 t-inv F
 -0.100000 -0.100000 -0.200000    0.00100000  15 t-inv F
  0.100000  0.200000  0.100000    0.00100000  15 t-inv F
  0.100000 -0.100000  0.000000    0.00100000  15 t-inv F
 -0.200000 -0.100000 -0.100000    0.00100000  15 t-inv F
  0.100000  0.100000  0.200000    0.00100000  15 t-inv F
  0.000000  0.100000 -0.100000    0.00100000  15 t-inv F
 -0.100000 -0.200000 -0.100000    0.00100000  15 t-inv F
  0.200000  0.100000  0.100000    0.00100000  15 t-inv F
 -0.100000  0.000000  0.100000    0.00100000  15 t-inv F
  0.000000  0.200000  0.200000    0.00100000  16 t-inv F
  0.200000  0.000000  0.200000    0.00100000  16 t-inv F
 -0.200000 -0.200000  0.000000    0.00100000  16 t-inv F
 -0.200000  0.000000 -0.200000    0.00100000  16 t-inv F
  0.000000 -0.200000 -0.200000    0.00100000  16 t-inv F
  0.000000  0.300000  0.200000    0.00100000  17 t-inv F
  0.200000  0.000000  0.300000    0.00100000  17 t-inv F
 -0.200000 -0.200000  0.100000    0.00100000  17 t-inv F
 -0.300000 -0.100000 -0.300000    0.00100000  17 t-inv F
  0.200000  0.300000  0.000000    0.00100000  17 t-inv F
  0.100000 -0.200000 -0.200000    0.00100000  17 t-inv F
 -0.300000 -0.300000 -0.100000    0.00100000  17 t-inv F
  0.000000  0.200000  0.300000    0.00100000  17 t-inv F
 -0.200000  0.100000 -0.200000    0.00100000  17 t-inv F
 -0.100000 -0.300000 -0.300000    0.00100000  17 t-inv F
  0.300000  0.000000  0.200000    0.00100000  17 t-inv F
 -0.300000 -0.200000  0.000000    0.00100000  17 t-inv F
  0.000000 -0.300000 -0.200000    0.00100000  17 t-inv F
 -0.200000  0.000000 -0.300000    0.00100000  17 t-inv F
  0.200000  0.200000 -0.100000    0.00100000  17 t-inv F
  0.300000  0.100000  0.300000    0.00100000  17 t-inv F
 -0.200000 -0.300000  0.000000    0.00100000  17 t-inv F
 -0.100000  0.200000  0.200000    0.00100000  17 t-inv F
  0.300000  0.300000  0.100000    0.00100000  17 t-inv F
  0.000000 -0.200000 -0.300000    0.00100000  17 t-inv F
  0.200000 -0.100000  0.200000    0.00100000  17 t-inv F
  0.100000  0.300000  0.300000    0.00100000  17 t-inv F
 -0.300000  0.000000 -0.200000    0.00100000  17 t-inv F
  0.000000  0.400000  0.200000    0.00100000  18 t-inv F
  0.200000  0.000000  0.400000    0.00100000  18 t-inv F
 -0.200000 -0.200000  0.200000    0.00100000  18 t-inv F
 -0.400000 -0.200000 -0.400000    0.00100000  18 t-inv F
  0.200000  0.400000  0.000000    0.00100000  18 t-inv F
  0.200000 -0.200000 -0.200000    0.00100000  18 t-inv F
 -0.400000 -0.400000 -0.200000    0.00100000  18 t-inv F
  0.000000  0.200000  0.400000    0.00100000  18 t-inv F
 -0.200000  0.200000 -0.200000    0.00100000  18 t-inv F
 -0.200000 -0.400000 -0.400000    0.00100000  18 t-inv F
  0.400000  0.000000  0.200000    0.00100000  18 t-inv F
 -0.400000 -0.200000  0.000000    0.00100000  18 t-inv F
  0.000000 -0.400000 -0.200000    0.00100000  18 t-inv F
 -0.200000  0.000000 -0.400000    0.00100000  18 t-inv F
  0.200000  0.200000 -0.200000    0.00100000  18 t-inv F
  0.400000  0.200000  0.400000    0.00100000  18 t-inv F
 -0.200000 -0.400000  0.000000    0.00100000  18 t-inv F
 -0.200000  0.200000  0.200000    0.00100000  18 t-inv F
  0.400000  0.400000  0.200000    0.00100000  18 t-inv F
  0.000000 -0.200000 -0.400000    0.00100000  18 t-inv F
  0.200000 -0.200000  0.200000    0.00100000  18 t-inv F
  0.200000  0.400000  0.400000    0.00100000  18 t-inv F
 -0.400000  0.000000 -0.200000    0.00100000  18 t-inv F
  0.000000  0.500000  0.200000    0.00100000  19 t-inv F
  0.200000  0.000000  0.500000    0.00100000  19 t-inv F
 -0.200000 -0.200000  0.300000    0.00100000  19 t-inv F
 -0.500000 -0.300000 -0.500000    0.00100000  19 t-inv F
  0.200000  0.500000  0.000000    0.00100000  19 t-inv F
  0.300000 -0.200000 -0.200000    0.00100000  19 t-inv F
 -0.500000 -0.500000 -0.300000    0.00100000  19 t-inv F
  0.000000  0.200000  0.500000    0.00100000  19 t-inv F
 -0.200000  0.300000 -0.200000    0.00100000  19 t-inv F
 -0.300000 -0.500000 -0.500000    0.00100000  19 t-inv F
  0.500000  0.000000  0.200000    0.00100000  19 t-inv F
 -0.500000 -0.200000  0.000000    0.00100000  19 t-inv F
  0.000000 -0.500000 -0.200000    0.00100000  19 t-inv F
 -0.200000  0.000000 -0.500000    0.00100000  19 t-inv F
  0.200000  0.200000 -0.300000    0.00100000  19 t-inv F
  0.500000  0.300000  0.500000    0.00100000  19 t-inv F
 -0.200000 -0.500000  0.000000    0.00100000  19 t-inv F
 -0.300000  0.200000  0.200000    0.00100000  19 t-inv F
  0.500000  0.500000  0.300000    0.00100000  19 t-inv F
  0.000000 -0.200000 -0.500000    0.00100000  19 t-inv F
  0.200000 -0.300000  0.200000    0.00100000  19 t-inv F
  0.300000  0.500000  0.500000    0.00100000  19 t-inv F
 -0.500000  0.000000 -0.200000    0.00100000  19 t-inv F
  0.000000 -0.400000  0.200000    0.00100000  20 t-inv F
  0.200000  0.000000 -0.400000    0.00100000  20 t-inv F
 -0.200000 -0.200000 -0.600000    0.00100000  20 t-inv F
  0.400000  0.600000  0.400000    0.00100000  20 t-inv F
  0.200000 -0.400000  0.000000    0.00100000  20 t-inv F
 -0.600000 -0.200000 -0.200000    0.00100000  20 t-inv F
  0.400000  0.400000  0.600000    0.00100000  20 t-inv F
  0.000000  0.200000 -0.400000    0.00100000  20 t-inv F
 -0.200000 -0.600000 -0.200000    0.00100000  20 t-inv F
  0.600000  0.400000  0.400000    0.00100000  20 t-inv F
 -0.400000  0.000000  0.200000    0.00100000  20 t-inv F
  0.400000 -0.200000  0.000000    0.00100000  20 t-inv F
  0.000000  0.400000 -0.200000    0.00100000  20 t-inv F
 -0.200000  0.000000  0.400000    0.00100000  20 t-inv F
  0.200000  0.200000  0.600000    0.00100000  20 t-inv F
 -0.400000 -0.600000 -0.400000    0.00100000  20 t-inv F
 -0.200000  0.400000  0.000000    0.00100000  20 t-inv F
  0.600000  0.200000  0.200000    0.00100000  20 t-inv F
 -0.400000 -0.400000 -0.600000    0.00100000  20 t-inv F
  0.000000 -0.200000  0.400000    0.00100000  20 t-inv F
  0.200000  0.600000  0.200000    0.00100000  20 t-inv F
 -0.600000 -0.400000 -0.400000    0.00100000  20 t-inv F
  0.400000  0.000000 -0.200000    0.00100000  20 t-inv F
  0.000000 -0.300000  0.200000    0.00100000  21 t-inv F
  0.200000  0.000000 -0.300000    0.00100000  21 t-inv F
 -0.200000 -0.200000 -0.500000    0.00100000  21 t-inv F
  0.300000  0.500000  0.300000    0.00100000  21 t-inv F
  0.200000 -0.300000  0.000000    0.00100000  21 t-inv F
 -0.500000 -0.200000 -0.200000    0.00100000  21 t-inv F
  0.300000  0.300000  0.500000    0.00100000  21 t-inv F
  0.000000  0.200000 -0.300000    0.00100000  21 t-inv F
 -0.200000 -0.500000 -0.200000    0.00100000  21 t-inv F
  0.500000  0.300000  0.300000    0.00100000  21 t-inv F
 -0.300000  0.000000  0.200000    0.00100000  21 t-inv F
  0.300000 -0.200000  0.000000    0.00100000  21 t-inv F
  0.000000  0.300000 -0.200000    0.00100000  21 t-inv F
 -0.200000  0.000000  0.300000    0.00100000  21 t-inv F
  0.200000  0.200000  0.500000    0.00100000  21 t-inv F
 -0.300000 -0.500000 -0.300000    0.00100000  21 t-inv F
 -0.200000  0.300000  0.000000    0.00100000  21 t-inv F
  0.500000  0.200000  0.200000    0.00100000  21 t-inv F
 -0.300000 -0.300000 -0.500000    0.00100000  21 t-inv F
  0.000000 -0.200000  0.300000    0.00100000  21 t-inv F
  0.200000  0.500000  0.200000    0.00100000  21 t-inv F
 -0.500000 -0.300000 -0.300000    0.00100000  21 t-inv F
  0.300000  0.000000 -0.200000    0.00100000  21 t-inv F
  0.000000 -0.200000  0.200000    0.00100000  22 t-inv F
  0.200000  0.000000 -0.200000    0.00100000  22 t-inv F
 -0.200000 -0.200000 -0.400000    0.00100000  22 t-inv F
  0.200000  0.400000  0.200000    0.00100000  22 t-inv F
  0.200000 -0.200000  0.000000    0.00100000  22 t-inv F
 -0.400000 -0.200000 -0.200000    0.00100000  22 t-inv F
  0.200000  0.200000  0.400000    0.00100000  22 t-inv F
  0.000000  0.200000 -0.200000    0.00100000  22 t-inv F
 -0.200000 -0.400000 -0.200000    0.00100000  22 t-inv F
  0.400000  0.200000  0.200000    0.00100000  22 t-inv F
 -0.200000  0.000000  0.200000    0.00100000  22 t-inv F
  0.000000  0.300000  0.300000    0.00100000  23 t-inv F
  0.300000  0.000000  0.300000    0.00100000  23 t-inv F
 -0.300000 -0.300000  0.000000    0.00100000  23 t-inv F
 -0.300000  0.000000 -0.300000    0.00100000  23 t-inv F
  0.000000 -0.300000 -0.300000    0.00100000  23 t-inv F
  0.000000  0.400000  0.300000    0.00100000  24 t-inv F
  0.300000  0.000000  0.400000    0.00100000  24 t-inv F
 -0.300000 -0.300000  0.100000    0.00100000  24 t-inv F
 -0.400000 -0.100000 -0.400000    0.00100000  24 t-inv F
  0.300000  0.400000  0.000000    0.00100000  24 t-inv F
  0.100000 -0.300000 -0.300000    0.00100000  24 t-inv F
 -0.400000 -0.400000 -0.100000    0.00100000  24 t-inv F
  0.000000  0.300000  0.400000    0.00100000  24 t-inv F
 -0.300000  0.100000 -0.300000    0.00100000  24 t-inv F
 -0.100000 -0.400000 -0.400000    0.00100000  24 t-inv F
  0.400000  0.000000  0.300000    0.00100000  24 t-inv F
 -0.400000 -0.300000  0.000000    0.00100000  24 t-inv F
  0.000000 -0.400000 -0.300000    0.00100000  24 t-inv F
 -0.300000  0.000000 -0.400000    0.00100000  24 t-inv F
  0.300000  0.300000 -0.100000    0.00100000  24 t-inv F
  0.400000  0.100000  0.400000    0.00100000  24 t-inv F
 -0.300000 -0.400000  0.000000    0.00100000  24 t-inv F
 -0.100000  0.300000  0.300000    0.00100000  24 t-inv F
  0.400000  0.400000  0.100000    0.00100000  24 t-inv F
  0.000000 -0.300000 -0.400000    0.00100000  24 t-inv F
  0.300000 -0.100000  0.300000    0.00100000  24 t-inv F
  0.100000  0.400000  0.400000    0.00100000  24 t-inv F
 -0.400000  0.000000 -0.300000    0.00100000  24 t-inv F
  0.000000  0.500000  0.300000    0.00100000  25 t-inv F
  0.300000  0.000000  0.500000    0.00100000  25 t-inv F
 -0.300000 -0.300000  0.200000    0.00100000  25 t-inv F
 -0.500000 -0.200000 -0.500000    0.00100000  25 t-inv F
  0.300000  0.500000  0.000000    0.00100000  25 t-inv F
  0.200000 -0.300000 -0.300000    0.00100000  25 t-inv F
 -0.500000 -0.500000 -0.200000    0.00100000  25 t-inv F
  0.000000  0.300000  0.500000    0.00100000  25 t-inv F
 -0.300000  0.200000 -0.300000    0.00100000  25 t-inv F
 -0.200000 -0.500000 -0.500000    0.00100000  25 t-inv F
  0.500000  0.000000  0.300000    0.00100000  25 t-inv F
 -0.500000 -0.300000  0.000000    0.00100000  25 t-inv F
  0.000000 -0.500000 -0.300000    0.00100000  25 t-inv F
 -0.300000  0.000000 -0.500000    0.00100000  25 t-inv F
  0.300000  0.300000 -0.200000    0.00100000  25 t-inv F
  0.500000  0.200000  0.500000    0.00100000  25 t-inv F
 -0.300000 -0.500000  0.000000    0.00100000  25 t-inv F
 -0.200000  0.300000  0.300000    0.00100000  25 t-inv F
  0.500000  0.500000  0.200000    0.00100000  25 t-inv F
  0.000000 -0.300000 -0.500000    0.00100000  25 t-inv F
  0.300000 -0.200000  0.300000    0.00100000  25 t-inv F
  0.200000  0.500000  0.500000    0.00100000  25 t-inv F
 -0.500000  0.000000 -0.300000    0.00100000  25 t-inv F
  0.000000 -0.400000  0.300000    0.00100000  26 t-inv F
  0.300000  0.000000 -0.400000    0.00100000  26 t-inv F
 -0.300000 -0.300000 -0.700000    0.00100000  26 t-inv F
  0.400000  0.700000  0.400000    0.00100000  26 t-inv F
  0.300000 -0.400000  0.000000    0.00100000  26 t-inv F
 -0.700000 -0.300000 -0.300000    0.00100000  26 t-inv F
  0.400000  0.400000  0.700000    0.00100000  26 t-inv F
  0.000000  0.300000 -0.400000    0.00100000  26 t-inv F
 -0.300000 -0.700000 -0.300000    0.00100000  26 t-inv F
  0.700000  0.400000  0.400000    0.00100000  26 t-inv F
 -0.400000  0.000000  0.300000    0.00100000  26 t-inv F
  0.400000 -0.300000  0.000000    0.00100000  26 t-inv F
  0.000000  0.400000 -0.300000    0.00100000  26 t-inv F
 -0.300000  0.000000  0.400000    0.00100000  26 t-inv F
  0.300000  0.300000  0.700000    0.00100000  26 t-inv F
 -0.400000 -0.700000 -0.400000    0.00100000  26 t-inv F
 -0.300000  0.400000  0.000000    0.00100000  26 t-inv F
  0.700000  0.300000  0.300000    0.00100000  26 t-inv F
 -0.400000 -0.400000 -0.700000    0.00100000  26 t-inv F
  0.000000 -0.300000  0.400000    0.00100000  26 t-inv F
  0.300000  0.700000  0.300000    0.00100000  26 t-inv F
 -0.700000 -0.400000 -0.400000    0.00100000  26 t-inv F
  0.400000  0.000000 -0.300000    0.00100000  26 t-inv F
  0.000000 -0.300000  0.300000    0.00100000  27 t-inv F
  0.300000  0.000000 -0.300000    0.00100000  27 t-inv F
 -0.300000 -0.300000 -0.600000    0.00100000  27 t-inv F
  0.300000  0.600000  0.300000    0.00100000  27 t-inv F
  0.300000 -0.300000  0.000000    0.00100000  27 t-inv F
 -0.600000 -0.300000 -0.300000    0.00100000  27 t-inv F
  0.300000  0.300000  0.600000    0.00100000  27 t-inv F
  0.000000  0.300000 -0.300000    0.00100000  27 t-inv F
 -0.300000 -0.600000 -0.300000    0.00100000  27 t-inv F
  0.600000  0.300000  0.300000    0.00100000  27 t-inv F
 -0.300000  0.000000  0.300000    0.00100000  27 t-inv F
  0.000000  0.400000  0.400000    0.00100000  28 t-inv F
  0.400000  0.000000  0.400000    0.00100000  28 t-inv F
 -0.400000 -0.400000  0.000000    0.00100000  28 t-inv F
 -0.400000  0.000000 -0.400000    0.00100000  28 t-inv F
  0.000000 -0.400000 -0.400000    0.00100000  28 t-inv F
  0.000000  0.500000  0.400000    0.00100000  29 t-inv F
  0.400000  0.000000  0.500000    0.00100000  29 t-inv F
 -0.400000 -0.400000  0.100000    0.00100000  29 t-inv F
 -0.500000 -0.100000 -0.500000    0.00100000  29 t-inv F
  0.400000  0.500000  0.000000    0.00100000  29 t-inv F
  0.100000 -0.400000 -0.400000    0.00100000  29 t-inv F
 -0.500000 -0.500000 -0.100000    0.00100000  29 t-inv F
  0.000000  0.400000  0.500000    0.00100000  29 t-inv F
 -0.400000  0.100000 -0.400000    0.00100000  29 t-inv F
 -0.100000 -0.500000 -0.500000    0.00100000  29 t-inv F
  0.500000  0.000000  0.400000    0.00100000  29 t-inv F
 -0.500000 -0.400000  0.000000    0.00100000  29 t-inv F
  0.000000 -0.500000 -0.400000    0.00100000  29 t-inv F
 -0.400000  0.000000 -0.500000    0.00100000  29 t-inv F
  0.400000  0.400000 -0.100000    0.00100000  29 t-inv F
  0.500000  0.100000  0.500000    0.00100000  29 t-inv F
 -0.400000 -0.500000  0.000000    0.00100000  29 t-inv F
 -0.100000  0.400000  0.400000    0.00100000  29 t-inv F
  0.500000  0.500000  0.100000    0.00100000  29 t-inv F
  0.000000 -0.400000 -0.500000    0.00100000  29 t-inv F
  0.400000 -0.100000  0.400000    0.00100000  29 t-inv F
  0.100000  0.500000  0.500000    0.00100000  29 t-inv F
 -0.500000  0.000000 -0.400000    0.00100000  29 t-inv F
  0.000000 -0.400000  0.400000    0.00100000  30 t-inv F
  0.400000  0.000000 -0.400000    0.00100000  30 t-inv F
 -0.400000 -0.400000 -0.800000    0.00100000  30 t-inv F
  0.400000  0.800000  0.400000    0.00100000  30 t-inv F
  0.400000 -0.400000  0.000000    0.00100000  30 t-inv F
 -0.800000 -0.400000 -0.400000    0.00100000  30 t-inv F
  0.400000  0.400000  0.800000    0.00100000  30 t-inv F
  0.000000  0.400000 -0.400000    0.00100000  30 t-inv F
 -0.400000 -0.800000 -0.400000    0.00100000  30 t-inv F
  0.800000  0.400000  0.400000    0.00100000  30 t-inv F
 -0.400000  0.000000  0.400000    0.00100000  30 t-inv F
  0.000000  0.500000  0.500000    0.00100000  31 t-inv F
  0.500000  0.000000  0.500000    0.00100000  31 t-inv F
  0.100000  0.300000  0.200000    0.00100000  32 t-inv F
  0.200000  0.100000  0.300000    0.00100000  32 t-inv F
 -0.200000 -0.100000  0.100000    0.00100000  32 t-inv F
 -0.300000 -0.100000 -0.200000    0.00100000  32 t-inv F
 -0.100000  0.200000  0.100000    0.00100000  32 t-inv F
  0.100000  0.200000 -0.100000    0.00100000  32 t-inv F
  0.100000 -0.100000 -0.200000    0.00100000  32 t-inv F
 -0.200000 -0.100000 -0.300000    0.00100000  32 t-inv F
 -0.200000 -0.300000 -0.100000    0.00100000  32 t-inv F
  0.100000 -0.100000  0.200000    0.00100000  32 t-inv F
  0.100000 -0.200000 -0.100000    0.00100000  32 t-inv F
 -0.100000  0.100000  0.200000    0.00100000  32 t-inv F
 -0.200000  0.100000 -0.100000    0.00100000  32 t-inv F
 -0.300000 -0.200000 -0.100000    0.00100000  32 t-inv F
 -0.100000 -0.200000 -0.300000    0.00100000  32 t-inv F
  0.200000  0.100000 -0.100000    0.00100000  32 t-inv F
 -0.100000  0.100000 -0.200000    0.00100000  32 t-inv F
  0.200000 -0.100000  0.100000    0.00100000  32 t-inv F
 -0.100000 -0.200000  0.100000    0.00100000  32 t-inv F
 -0.100000 -0.300000 -0.200000    0.00100000  32 t-inv F
  0.300000  0.100000  0.200000    0.00100000  32 t-inv F
  0.200000  0.300000  0.100000    0.00100000  32 t-inv F
  0.100000  0.200000  0.300000    0.00100000  32 t-inv F
  0.100000  0.400000  0.200000    0.00100000  33 t-inv F
  0.200000  0.100000  0.400000    0.00100000  33 t-inv F
 -0.200000 -0.100000  0.200000    0.00100000  33 t-inv F
 -0.400000 -0.200000 -0.300000    0.00100000  33 t-inv F
 -0.100000  0.300000  0.100000    0.00100000  33 t-inv F
  0.100000  0.300000 -0.100000    0.00100000  33 t-inv F
  0.200000 -0.100000 -0.200000    0.00100000  33 t-inv F
 -0.300000 -0.200000 -0.400000    0.00100000  33 t-inv F
 -0.300000 -0.400000 -0.200000    0.00100000  33 t-inv F
  0.100000 -0.100000  0.300000    0.00100000  33 t-inv F
  0.200000 -0.200000 -0.100000    0.00100000  33 t-inv F
 -0.100000  0.100000  0.300000    0.00100000  33 t-inv F
 -0.200000  0.200000 -0.100000    0.00100000  33 t-inv F
 -0.400000 -0.300000 -0.200000    0.00100000  33 t-inv F
 -0.200000 -0.300000 -0.400000    0.00100000  33 t-inv F
  0.300000  0.100000 -0.100000    0.00100000  33 t-inv F
 -0.100000  0.200000 -0.200000    0.00100000  33 t-inv F
  0.300000 -0.100000  0.100000    0.00100000  33 t-inv F
 -0.100000 -0.200000  0.200000    0.00100000  33 t-inv F
 -0.200000 -0.400000 -0.300000    0.00100000  33 t-inv F
  0.400000  0.100000  0.200000    0.00100000  33 t-inv F
  0.200000  0.400000  0.100000    0.00100000  33 t-inv F
  0.100000  0.200000  0.400000    0.00100000  33 t-inv F
 -0.400000 -0.200000 -0.100000    0.00100000  33 t-inv F
 -0.100000 -0.400000 -0.200000    0.00100000  33 t-inv F
 -0.200000 -0.100000 -0.400000    0.00100000  33 t-inv F
  0.200000  0.100000 -0.200000    0.00100000  33 t-inv F
  0.400000  0.200000  0.300000    0.00100000  33 t-inv F
  0.100000 -0.300000 -0.100000    0.00100000  33 t-inv F
 -0.100000 -0.300000  0.100000    0.00100000  33 t-inv F
 -0.200000  0.100000  0.200000    0.00100000  33 t-inv F
  0.300000  0.200000  0.400000    0.00100000  33 t-inv F
  0.300000  0.400000  0.200000    0.00100000  33 t-inv F
 -0.100000  0.100000 -0.300000    0.00100000  33 t-inv F
 -0.200000  0.200000  0.100000    0.00100000  33 t-inv F
  0.100000 -0.100000 -0.300000    0.00100000  33 t-inv F
  0.200000 -0.200000  0.100000    0.00100000  33 t-inv F
  0.400000  0.300000  0.200000    0.00100000  33 t-inv F
  0.200000  0.300000  0.400000    0.00100000  33 t-inv F
 -0.300000 -0.100000  0.100000    0.00100000  33 t-inv F
  0.100000 -0.200000  0.200000    0.00100000  33 t-inv F
 -0.300000  0.100000 -0.100000    0.00100000  33 t-inv F
  0.100000  0.200000 -0.200000    0.00100000  33 t-inv F
  0.200000  0.400000  0.300000    0.00100000  33 t-inv F
 -0.400000 -0.100000 -0.200000    0.00100000  33 t-inv F
 -0.200000 -0.400000 -0.100000    0.00100000  33 t-inv F
 -0.100000 -0.200000 -0.400000    0.00100000  33 t-inv F
  0.100000  0.500000  0.200000    0.00100000  34 t-inv F
  0.200000  0.100000  0.500000    0.00100000  34 t-inv F
 -0.200000 -0.100000  0.300000    0.00100000  34 t-inv F
 -0.500000 -0.300000 -0.400000    0.00100000  34 t-inv F
 -0.100000  0.400000  0.100000    0.00100000  34 t-inv F
  0.100000  0.400000 -0.100000    0.00100000  34 t-inv F
  0.300000 -0.100000 -0.200000    0.00100000  34 t-inv F
 -0.400000 -0.300000 -0.500000    0.00100000  34 t-inv F
 -0.400000 -0.500000 -0.300000    0.00100000  34 t-inv F
  0.100000 -0.100000  0.400000    0.00100000  34 t-inv F
  0.300000 -0.200000 -0.100000    0.00100000  34 t-inv F
 -0.100000  0.100000  0.400000    0.00100000  34 t-inv F
 -0.200000  0.300000 -0.100000    0.00100000  34 t-inv F
 -0.500000 -0.400000 -0.300000    0.00100000  34 t-inv F
 -0.300000 -0.400000 -0.500000    0.00100000  34 t-inv F
  0.400000  0.100000 -0.100000    0.00100000  34 t-inv F
 -0.100000  0.300000 -0.200000    0.00100000  34 t-inv F
  0.400000 -0.100000  0.100000    0.00100000  34 t-inv F
 -0.100000 -0.200000  0.300000    0.00100000  34 t-inv F
 -0.300000 -0.500000 -0.400000    0.00100000  34 t-inv F
  0.500000  0.100000  0.200000    0.00100000  34 t-inv F
  0.200000  0.500000  0.100000    0.00100000  34 t-inv F
  0.100000  0.200000  0.500000    0.00100000  34 t-inv F
 -0.500000 -0.200000 -0.100000    0.00100000  34 t-inv F
 -0.100000 -0.500000 -0.200000    0.00100000  34 t-inv F
 -0.200000 -0.100000 -0.500000    0.00100000  34 t-inv F
  0.200000  0.100000 -0.300000    0.00100000  34 t-inv F
  0.500000  0.300000  0.400000    0.00100000  34 t-inv F
  0.100000 -0.400000 -0.100000    0.00100000  34 t-inv F
 -0.100000 -0.400000  0.100000    0.00100000  34 t-inv F
 -0.300000  0.100000  0.200000    0.00100000  34 t-inv F
  0.400000  0.300000  0.500000    0.00100000  34 t-inv F
  0.400000  0.500000  0.300000    0.00100000  34 t-inv F
 -0.100000  0.100000 -0.400000    0.00100000  34 t-inv F
 -0.300000  0.200000  0.100000    0.00100000  34 t-inv F
  0.100000 -0.100000 -0.400000    0.00100000  34 t-inv F
  0.200000 -0.300000  0.100000    0.00100000  34 t-inv F
  0.500000  0.400000  0.300000    0.00100000  34 t-inv F
  0.300000  0.400000  0.500000    0.00100000  34 t-inv F
 -0.400000 -0.100000  0.100000    0.00100000  34 t-inv F
  0.100000 -0.300000  0.200000    0.00100000  34 t-inv F
 -0.400000  0.100000 -0.100000    0.00100000  34 t-inv F
  0.100000  0.200000 -0.300000    0.00100000  34 t-inv F
  0.300000  0.500000  0.400000    0.00100000  34 t-inv F
 -0.500000 -0.100000 -0.200000    0.00100000  34 t-inv F
 -0.200000 -0.500000 -0.100000    0.00100000  34 t-inv F
 -0.100000 -0.200000 -0.500000    0.00100000  34 t-inv F
  0.100000 -0.400000  0.200000    0.00100000  35 t-inv F
  0.200000  0.100000 -0.400000    0.00100000  35 t-inv F
 -0.200000 -0.100000 -0.600000    0.00100000  35 t-inv F
  0.400000  0.600000  0.500000    0.00100000  35 t-inv F
 -0.100000 -0.500000  0.100000    0.00100000  35 t-inv F
  0.100000 -0.500000 -0.100000    0.00100000  35 t-inv F
 -0.600000 -0.100000 -0.200000    0.00100000  35 t-inv F
  0.500000  0.600000  0.400000    0.00100000  35 t-inv F
  0.500000  0.400000  0.600000    0.00100000  35 t-inv F
  0.100000 -0.100000 -0.500000    0.00100000  35 t-inv F
 -0.600000 -0.200000 -0.100000    0.00100000  35 t-inv F
 -0.100000  0.100000 -0.500000    0.00100000  35 t-inv F
 -0.200000 -0.600000 -0.100000    0.00100000  35 t-inv F
  0.400000  0.500000  0.600000    0.00100000  35 t-inv F
  0.600000  0.500000  0.400000    0.00100000  35 t-inv F
 -0.500000  0.100000 -0.100000    0.00100000  35 t-inv F
 -0.100000 -0.600000 -0.200000    0.00100000  35 t-inv F
 -0.500000 -0.100000  0.100000    0.00100000  35 t-inv F
 -0.100000 -0.200000 -0.600000    0.00100000  35 t-inv F
  0.600000  0.400000  0.500000    0.00100000  35 t-inv F
 -0.400000  0.100000  0.200000    0.00100000  35 t-inv F
  0.200000 -0.400000  0.100000    0.00100000  35 t-inv F
  0.100000  0.200000 -0.400000    0.00100000  35 t-inv F
  0.100000  0.400000  0.300000    0.00100000  36 t-inv F
  0.300000  0.100000  0.400000    0.00100000  36 t-inv F
 -0.300000 -0.200000  0.100000    0.00100000  36 t-inv F
 -0.400000 -0.100000 -0.300000    0.00100000  36 t-inv F
 -0.100000  0.300000  0.200000    0.00100000  36 t-inv F
  0.200000  0.300000 -0.100000    0.00100000  36 t-inv F
  0.100000 -0.200000 -0.300000    0.00100000  36 t-inv F
 -0.300000 -0.100000 -0.400000    0.00100000  36 t-inv F
 -0.300000 -0.400000 -0.100000    0.00100000  36 t-inv F
  0.200000 -0.100000  0.300000    0.00100000  36 t-inv F
  0.100000 -0.300000 -0.200000    0.00100000  36 t-inv F
 -0.100000  0.200000  0.300000    0.00100000  36 t-inv F
 -0.300000  0.100000 -0.200000    0.00100000  36 t-inv F
 -0.400000 -0.300000 -0.100000    0.00100000  36 t-inv F
 -0.100000 -0.300000 -0.400000    0.00100000  36 t-inv F
  0.300000  0.200000 -0.100000    0.00100000  36 t-inv F
 -0.200000  0.100000 -0.300000    0.00100000  36 t-inv F
  0.300000 -0.100000  0.200000    0.00100000  36 t-inv F
 -0.200000 -0.300000  0.100000    0.00100000  36 t-inv F
 -0.100000 -0.400000 -0.300000    0.00100000  36 t-inv F
  0.400000  0.100000  0.300000    0.00100000  36 t-inv F
  0.300000  0.400000  0.100000    0.00100000  36 t-inv F
  0.100000  0.300000  0.400000    0.00100000  36 t-inv F
  0.100000  0.500000  0.300000    0.00100000  37 t-inv F
  0.300000  0.100000  0.500000    0.00100000  37 t-inv F
 -0.300000 -0.200000  0.200000    0.00100000  37 t-inv F
 -0.500000 -0.200000 -0.400000    0.00100000  37 t-inv F
 -0.100000  0.400000  0.200000    0.00100000  37 t-inv F
  0.200000  0.400000 -0.100000    0.00100000  37 t-inv F
  0.200000 -0.200000 -0.300000    0.00100000  37 t-inv F
 -0.400000 -0.200000 -0.500000    0.00100000  37 t-inv F
 -0.400000 -0.500000 -0.200000    0.00100000  37 t-inv F
  0.200000 -0.100000  0.400000    0.00100000  37 t-inv F
  0.200000 -0.300000 -0.200000    0.00100000  37 t-inv F
 -0.100000  0.200000  0.400000    0.00100000  37 t-inv F
 -0.300000  0.200000 -0.200000    0.00100000  37 t-inv F
 -0.500000 -0.400000 -0.200000    0.00100000  37 t-inv F
 -0.200000 -0.400000 -0.500000    0.00100000  37 t-inv F
  0.400000  0.200000 -0.100000    0.00100000  37 t-inv F
 -0.200000  0.200000 -0.300000    0.00100000  37 t-inv F
  0.400000 -0.100000  0.200000    0.00100000  37 t-inv F
 -0.200000 -0.300000  0.200000    0.00100000  37 t-inv F
 -0.200000 -0.500000 -0.400000    0.00100000  37 t-inv F
  0.500000  0.100000  0.300000    0.00100000  37 t-inv F
  0.300000  0.500000  0.100000    0.00100000  37 t-inv F
  0.100000  0.300000  0.500000    0.00100000  37 t-inv F
 -0.500000 -0.300000 -0.100000    0.00100000  37 t-inv F
 -0.100000 -0.500000 -0.300000    0.00100000  37 t-inv F
 -0.300000 -0.100000 -0.500000    0.00100000  37 t-inv F
  0.300000  0.200000 -0.200000    0.00100000  37 t-inv F
  0.500000  0.200000  0.400000    0.00100000  37 t-inv F
  0.100000 -0.400000 -0.200000    0.00100000  37 t-inv F
 -0.200000 -0.400000  0.100000    0.00100000  37 t-inv F
 -0.200000  0.200000  0.300000    0.00100000  37 t-inv F
  0.400000  0.200000  0.500000    0.00100000  37 t-inv F
  0.400000  0.500000  0.200000    0.00100000  37 t-inv F
 -0.200000  0.100000 -0.400000    0.00100000  37 t-inv F
 -0.200000  0.300000  0.200000    0.00100000  37 t-inv F
  0.100000 -0.200000 -0.400000    0.00100000  37 t-inv F
  0.300000 -0.200000  0.200000    0.00100000  37 t-inv F
  0.500000  0.400000  0.200000    0.00100000  37 t-inv F
  0.200000  0.400000  0.500000    0.00100000  37 t-inv F
 -0.400000 -0.200000  0.100000    0.00100000  37 t-inv F
  0.200000 -0.200000  0.300000    0.00100000  37 t-inv F
 -0.400000  0.100000 -0.200000    0.00100000  37 t-inv F
  0.200000  0.300000 -0.200000    0.00100000  37 t-inv F
  0.200000  0.500000  0.400000    0.00100000  37 t-inv F
 -0.500000 -0.100000 -0.300000    0.00100000  37 t-inv F
 -0.300000 -0.500000 -0.100000    0.00100000  37 t-inv F
 -0.100000 -0.300000 -0.500000    0.00100000  37 t-inv F
  0.100000 -0.400000  0.300000    0.00100000  38 t-inv F
  0.300000  0.100000 -0.400000    0.00100000  38 t-inv F
 -0.300000 -0.200000 -0.700000    0.00100000  38 t-inv F
  0.400000  0.700000  0.500000    0.00100000  38 t-inv F
 -0.100000 -0.500000  0.200000    0.00100000  38 t-inv F
  0.200000 -0.500000 -0.100000    0.00100000  38 t-inv F
 -0.700000 -0.200000 -0.300000    0.00100000  38 t-inv F
  0.500000  0.700000  0.400000    0.00100000  38 t-inv F
  0.500000  0.400000  0.700000    0.00100000  38 t-inv F
  0.200000 -0.100000 -0.500000    0.00100000  38 t-inv F
 -0.700000 -0.300000 -0.200000    0.00100000  38 t-inv F
 -0.100000  0.200000 -0.500000    0.00100000  38 t-inv F
 -0.300000 -0.700000 -0.200000    0.00100000  38 t-inv F
  0.400000  0.500000  0.700000    0.00100000  38 t-inv F
  0.700000  0.500000  0.400000    0.00100000  38 t-inv F
 -0.500000  0.200000 -0.100000    0.00100000  38 t-inv F
 -0.200000 -0.700000 -0.300000    0.00100000  38 t-inv F
 -0.500000 -0.100000  0.200000    0.00100000  38 t-inv F
 -0.200000 -0.300000 -0.700000    0.00100000  38 t-inv F
  0.700000  0.400000  0.500000    0.00100000  38 t-inv F
 -0.400000  0.100000  0.300000    0.00100000  38 t-inv F
  0.300000 -0.400000  0.100000    0.00100000  38 t-inv F
  0.100000  0.300000 -0.400000    0.00100000  38 t-inv F
  0.400000 -0.300000 -0.100000    0.00100000  38 t-inv F
 -0.100000  0.400000 -0.300000    0.00100000  38 t-inv F
 -0.300000 -0.100000  0.400000    0.00100000  38 t-inv F
  0.300000  0.200000  0.700000    0.00100000  38 t-inv F
 -0.400000 -0.700000 -0.500000    0.00100000  38 t-inv F
  0.100000  0.500000 -0.200000    0.00100000  38 t-inv F
 -0.200000  0.500000  0.100000    0.00100000  38 t-inv F
  0.700000  0.200000  0.300000    0.00100000  38 t-inv F
 -0.500000 -0.700000 -0.400000    0.00100000  38 t-inv F
 -0.500000 -0.400000 -0.700000    0.00100000  38 t-inv F
 -0.200000  0.100000  0.500000    0.00100000  38 t-inv F
  0.700000  0.300000  0.200000    0.00100000  38 t-inv F
  0.100000 -0.200000  0.500000    0.00100000  38 t-inv F
  0.300000  0.700000  0.200000    0.00100000  38 t-inv F
 -0.400000 -0.500000 -0.700000    0.00100000  38 t-inv F
 -0.700000 -0.500000 -0.400000    0.00100000  38 t-inv F
  0.500000 -0.200000  0.100000    0.00100000  38 t-inv F
  0.200000  0.700000  0.300000    0.00100000  38 t-inv F
  0.500000  0.100000 -0.200000    0.00100000  38 t-inv F
  0.200000  0.300000  0.700000    0.00100000  38 t-inv F
 -0.700000 -0.400000 -0.500000    0.00100000  38 t-inv F
  0.400000 -0.100000 -0.300000    0.00100000  38 t-inv F
 -0.300000  0.400000 -0.100000    0.00100000  38 t-inv F
 -0.100000 -0.300000  0.400000    0.00100000  38 t-inv F
  0.100000 -0.300000  0.300000    0.00100000  39 t-inv F
  0.300000  0.100000 -0.300000    0.00100000  39 t-inv F
 -0.300000 -0.200000 -0.600000    0.00100000  39 t-inv F
  0.300000  0.600000  0.400000    0.00100000  39 t-inv F
 -0.100000 -0.400000  0.200000    0.00100000  39 t-inv F
  0.200000 -0.400000 -0.100000    0.00100000  39 t-inv F
 -0.600000 -0.200000 -0.300000    0.00100000  39 t-inv F
  0.400000  0.600000  0.300000    0.00100000  39 t-inv F
  0.400000  0.300000  0.600000    0.00100000  39 t-inv F
  0.200000 -0.100000 -0.400000    0.00100000  39 t-inv F
 -0.600000 -0.300000 -0.200000    0.00100000  39 t-inv F
 -0.100000  0.200000 -0.400000    0.00100000  39 t-inv F
 -0.300000 -0.600000 -0.200000    0.00100000  39 t-inv F
  0.300000  0.400000  0.600000    0.00100000  39 t-inv F
  0.600000  0.400000  0.300000    0.00100000  39 t-inv F
 -0.400000  0.200000 -0.100000    0.00100000  39 t-inv F
 -0.200000 -0.600000 -0.300000    0.00100000  39 t-inv F
 -0.400000 -0.100000  0.200000    0.00100000  39 t-inv F
 -0.200000 -0.300000 -0.600000    0.00100000  39 t-inv F
  0.600000  0.300000  0.400000    0.00100000  39 t-inv F
 -0.300000  0.100000  0.300000    0.00100000  39 t-inv F
  0.300000 -0.300000  0.100000    0.00100000  39 t-inv F
  0.100000  0.300000 -0.300000    0.00100000  39 t-inv F
  0.300000 -0.300000 -0.100000    0.00100000  39 t-inv F
 -0.100000  0.300000 -0.300000    0.00100000  39 t-inv F
 -0.300000 -0.100000  0.300000    0.00100000  39 t-inv F
  0.300000  0.200000  0.600000    0.00100000  39 t-inv F
 -0.300000 -0.600000 -0.400000    0.00100000  39 t-inv F
  0.100000  0.400000 -0.200000    0.00100000  39 t-inv F
 -0.200000  0.400000  0.100000    0.00100000  39 t-inv F
  0.600000  0.200000  0.300000    0.00100000  39 t-inv F
 -0.400000 -0.600000 -0.300000    0.00100000  39 t-inv F
 -0.400000 -0.300000 -0.600000    0.00100000  39 t-inv F
 -0.200000  0.100000  0.400000    0.00100000  39 t-inv F
  0.600000  0.300000  0.200000    0.00100000  39 t-inv F
  0.100000 -0.200000  0.400000    0.00100000  39 t-inv F
  0.300000  0.600000  0.200000    0.00100000  39 t-inv F
 -0.300000 -0.400000 -0.600000    0.00100000  39 t-inv F
 -0.600000 -0.400000 -0.300000    0.00100000  39 t-inv F
  0.400000 -0.200000  0.100000    0.00100000  39 t-inv F
  0.200000  0.600000  0.300000    0.00100000  39 t-inv F
  0.400000  0.100000 -0.200000    0.00100000  39 t-inv F
  0.200000  0.300000  0.600000    0.00100000  39 t-inv F
 -0.600000 -0.300000 -0.400000    0.00100000  39 t-inv F
  0.300000 -0.100000 -0.300000    0.00100000  39 t-inv F
 -0.300000  0.300000 -0.100000    0.00100000  39 t-inv F
 -0.100000 -0.300000  0.300000    0.00100000  39 t-inv F
  0.100000 -0.200000  0.300000    0.00100000  40 t-inv F
  0.300000  0.100000 -0.200000    0.00100000  40 t-inv F
 -0.300000 -0.200000 -0.500000    0.00100000  40 t-inv F
  0.200000  0.500000  0.300000    0.00100000  40 t-inv F
 -0.100000 -0.300000  0.200000    0.00100000  40 t-inv F
  0.200000 -0.300000 -0.100000    0.00100000  40 t-inv F
 -0.500000 -0.200000 -0.300000    0.00100000  40 t-inv F
  0.300000  0.500000  0.200000    0.00100000  40 t-inv F
  0.300000  0.200000  0.500000    0.00100000  40 t-inv F
  0.200000 -0.100000 -0.300000    0.00100000  40 t-inv F
 -0.500000 -0.300000 -0.200000    0.00100000  40 t-inv F
 -0.100000  0.200000 -0.300000    0.00100000  40 t-inv F
 -0.300000 -0.500000 -0.200000    0.00100000  40 t-inv F
  0.200000  0.300000  0.500000    0.00100000  40 t-inv F
  0.500000  0.300000  0.200000    0.00100000  40 t-inv F
 -0.300000  0.200000 -0.100000    0.00100000  40 t-inv F
 -0.200000 -0.500000 -0.300000    0.00100000  40 t-inv F
 -0.300000 -0.100000  0.200000    0.00100000  40 t-inv F
 -0.200000 -0.300000 -0.500000    0.00100000  40 t-inv F
  0.500000  0.200000  0.300000    0.00100000  40 t-inv F
 -0.200000  0.100000  0.300000    0.00100000  40 t-inv F
  0.300000 -0.200000  0.100000    0.00100000  40 t-inv F
  0.100000  0.300000 -0.200000    0.00100000  40 t-inv F
  0.100000  0.500000  0.400000    0.00100000  41 t-inv F
  0.400000  0.100000  0.500000    0.00100000  41 t-inv F
 -0.400000 -0.300000  0.100000    0.00100000  41 t-inv F
 -0.500000 -0.100000 -0.400000    0.00100000  41 t-inv F
 -0.100000  0.400000  0.300000    0.00100000  41 t-inv F
  0.300000  0.400000 -0.100000    0.00100000  41 t-inv F
  0.100000 -0.300000 -0.400000    0.00100000  41 t-inv F
 -0.400000 -0.100000 -0.500000    0.00100000  41 t-inv F
 -0.400000 -0.500000 -0.100000    0.00100000  41 t-inv F
  0.300000 -0.100000  0.400000    0.00100000  41 t-inv F
  0.100000 -0.400000 -0.300000    0.00100000  41 t-inv F
 -0.100000  0.300000  0.400000    0.00100000  41 t-inv F
 -0.400000  0.100000 -0.300000    0.00100000  41 t-inv F
 -0.500000 -0.400000 -0.100000    0.00100000  41 t-inv F
 -0.100000 -0.400000 -0.500000    0.00100000  41 t-inv F
  0.400000  0.300000 -0.100000    0.00100000  41 t-inv F
 -0.300000  0.100000 -0.400000    0.00100000  41 t-inv F
  0.400000 -0.100000  0.300000    0.00100000  41 t-inv F
 -0.300000 -0.400000  0.100000    0.00100000  41 t-inv F
 -0.100000 -0.500000 -0.400000    0.00100000  41 t-inv F
  0.500000  0.100000  0.400000    0.00100000  41 t-inv F
  0.400000  0.500000  0.100000    0.00100000  41 t-inv F
  0.100000  0.400000  0.500000    0.00100000  41 t-inv F
  0.100000 -0.400000  0.400000    0.00100000  42 t-inv F
  0.400000  0.100000 -0.400000    0.00100000  42 t-inv F
 -0.400000 -0.300000 -0.800000    0.00100000  42 t-inv F
  0.400000  0.800000  0.500000    0.00100000  42 t-inv F
 -0.100000 -0.500000  0.300000    0.00100000  42 t-inv F
  0.300000 -0.500000 -0.100000    0.00100000  42 t-inv F
 -0.800000 -0.300000 -0.400000    0.00100000  42 t-inv F
  0.500000  0.800000  0.400000    0.00100000  42 t-inv F
  0.500000  0.400000  0.800000    0.00100000  42 t-inv F
  0.300000 -0.100000 -0.500000    0.00100000  42 t-inv F
 -0.800000 -0.400000 -0.300000    0.00100000  42 t-inv F
 -0.100000  0.300000 -0.500000    0.00100000  42 t-inv F
 -0.400000 -0.800000 -0.300000    0.00100000  42 t-inv F
  0.400000  0.500000  0.800000    0.00100000  42 t-inv F
  0.800000  0.500000  0.400000    0.00100000  42 t-inv F
 -0.500000  0.300000 -0.100000    0.00100000  42 t-inv F
 -0.300000 -0.800000 -0.400000    0.00100000  42 t-inv F
 -0.500000 -0.100000  0.300000    0.00100000  42 t-inv F
 -0.300000 -0.400000 -0.800000    0.00100000  42 t-inv F
  0.800000  0.400000  0.500000    0.00100000  42 t-inv F
 -0.400000  0.100000  0.400000    0.00100000  42 t-inv F
  0.400000 -0.400000  0.100000    0.00100000  42 t-inv F
  0.100000  0.400000 -0.400000    0.00100000  42 t-inv F
  0.400000 -0.400000 -0.100000    0.00100000  42 t-inv F
 -0.100000  0.400000 -0.400000    0.00100000  42 t-inv F
 -0.400000 -0.100000  0.400000    0.00100000  42 t-inv F
  0.400000  0.300000  0.800000    0.00100000  42 t-inv F
 -0.400000 -0.800000 -0.500000    0.00100000  42 t-inv F
  0.100000  0.500000 -0.300000    0.00100000  42 t-inv F
 -0.300000  0.500000  0.100000    0.00100000  42 t-inv F
  0.800000  0.300000  0.400000    0.00100000  42 t-inv F
 -0.500000 -0.800000 -0.400000    0.00100000  42 t-inv F
 -0.500000 -0.400000 -0.800000    0.00100000  42 t-inv F
 -0.300000  0.100000  0.500000    0.00100000  42 t-inv F
  0.800000  0.400000  0.300000    0.00100000  42 t-inv F
  0.100000 -0.300000  0.500000    0.00100000  42 t-inv F
  0.400000  0.800000  0.300000    0.00100000  42 t-inv F
 -0.400000 -0.500000 -0.800000    0.00100000  42 t-inv F
 -0.800000 -0.500000 -0.400000    0.00100000  42 t-inv F
  0.500000 -0.300000  0.100000    0.00100000  42 t-inv F
  0.300000  0.800000  0.400000    0.00100000  42 t-inv F
  0.500000  0.100000 -0.300000    0.00100000  42 t-inv F
  0.300000  0.400000  0.800000    0.00100000  42 t-inv F
 -0.800000 -0.400000 -0.500000    0.00100000  42 t-inv F
  0.400000 -0.100000 -0.400000    0.00100000  42 t-inv F
 -0.400000  0.400000 -0.100000    0.00100000  42 t-inv F
 -0.100000 -0.400000  0.400000    0.00100000  42 t-inv F
  0.100000 -0.300000  0.400000    0.00100000  43 t-inv F
  0.400000  0.100000 -0.300000    0.00100000  43 t-inv F
 -0.400000 -0.300000 -0.700000    0.00100000  43 t-inv F
  0.300000  0.700000  0.400000    0.00100000  43 t-inv F
 -0.100000 -0.400000  0.300000    0.00100000  43 t-inv F
  0.300000 -0.400000 -0.100000    0.00100000  43 t-inv F
 -0.700000 -0.300000 -0.400000    0.00100000  43 t-inv F
  0.400000  0.700000  0.300000    0.00100000  43 t-inv F
  0.400000  0.300000  0.700000    0.00100000  43 t-inv F
  0.300000 -0.100000 -0.400000    0.00100000  43 t-inv F
 -0.700000 -0.400000 -0.300000    0.00100000  43 t-inv F
 -0.100000  0.300000 -0.400000    0.00100000  43 t-inv F
 -0.400000 -0.700000 -0.300000    0.00100000  43 t-inv F
  0.300000  0.400000  0.700000    0.00100000  43 t-inv F
  0.700000  0.400000  0.300000    0.00100000  43 t-inv F
 -0.400000  0.300000 -0.100000    0.00100000  43 t-inv F
 -0.300000 -0.700000 -0.400000    0.00100000  43 t-inv F
 -0.400000 -0.100000  0.300000    0.00100000  43 t-inv F
 -0.300000 -0.400000 -0.700000    0.00100000  43 t-inv F
  0.700000  0.300000  0.400000    0.00100000  43 t-inv F
[...]
     11      -6.9519      2.00000
     12      -2.8603      2.00000
     13       0.1961      2.00000
     14       2.7875      2.00000
     15       7.1927      0.00000
     16      10.7894      0.00000
     17      11.0833      0.00000
     18      11.1106      0.00000

 k-point   103 :       0.2557    0.2557    0.5114
  band No.  band energies     occupation 
      1     -23.3421      2.00000
      2     -23.3335      2.00000
      3     -23.2544      2.00000
      4     -23.2163      2.00000
      5     -23.1888      2.00000
      6     -23.1206      2.00000
      7     -23.1039      2.00000
      8     -23.0869      2.00000
      9     -23.0011      2.00000
     10     -22.9967      2.00000
     11      -7.2107      2.00000
     12      -2.5192      2.00000
     13       0.4021      2.00000
     14       2.9791      2.00000
     15       7.3034      0.00000
     16      10.4519      0.00000
     17      10.7168      0.00000
     18      10.9253      0.00000

 k-point   104 :       0.2386    0.2386    0.4773
  band No.  band energies     occupation 
      1     -23.3385      2.00000
      2     -23.3326      2.00000
      3     -23.2595      2.00000
      4     -23.2217      2.00000
      5     -23.1940      2.00000
      6     -23.1166      2.00000
      7     -23.0967      2.00000
      8     -23.0828      2.00000
      9     -23.0021      2.00000
     10     -23.0013      2.00000
     11      -7.4647      2.00000
     12      -2.1537      2.00000
     13       0.6428      2.00000
     14       3.1717      2.00000
     15       7.3886      0.00000
     16      10.1329      0.00000
     17      10.3693      0.00000
     18      10.7905      0.00000

 k-point   105 :       0.2216    0.2216    0.4432
  band No.  band energies     occupation 
      1     -23.3346      2.00000
      2     -23.3313      2.00000
      3     -23.2652      2.00000
      4     -23.2258      2.00000
      5     -23.1995      2.00000
      6     -23.1124      2.00000
      7     -23.0922      2.00000
      8     -23.0763      2.00000
      9     -23.0065      2.00000
     10     -23.0033      2.00000
     11      -7.7105      2.00000
     12      -1.7641      2.00000
     13       0.9139      2.00000
     14       3.3623      2.00000
     15       7.4411      0.00000
     16       9.8333      0.00000
     17      10.0423      0.00000
     18      10.7074      0.00000

 k-point   106 :       0.2045    0.2045    0.4091
  band No.  band energies     occupation 
      1     -23.3304      2.00000
      2     -23.3298      2.00000
      3     -23.2711      2.00000
      4     -23.2292      2.00000
      5     -23.2051      2.00000
      6     -23.1077      2.00000
      7     -23.0892      2.00000
      8     -23.0689      2.00000
      9     -23.0117      2.00000
     10     -23.0048      2.00000
     11      -7.9451      2.00000
     12      -1.3507      2.00000
     13       1.2116      2.00000
     14       3.5479      2.00000
     15       7.4572      0.00000
     16       9.5536      0.00000
     17       9.7370      0.00000
     18      10.6708      0.00000

 k-point   107 :       0.1875    0.1875    0.3750
  band No.  band energies     occupation 
      1     -23.3280      2.00000
      2     -23.3262      2.00000
      3     -23.2769      2.00000
      4     -23.2323      2.00000
      5     -23.2108      2.00000
      6     -23.1031      2.00000
      7     -23.0865      2.00000
      8     -23.0619      2.00000
      9     -23.0172      2.00000
     10     -23.0065      2.00000
     11      -8.1664      2.00000
     12      -0.9138      2.00000
     13       1.5320      2.00000
     14       3.7254      2.00000
     15       7.4378      0.00000
     16       9.2944      0.00000
     17       9.4539      0.00000
     18      10.6649      0.00000

 k-point   108 :       0.1705    0.1705    0.3409
  band No.  band energies     occupation 
      1     -23.3259      2.00000
      2     -23.3221      2.00000
      3     -23.2824      2.00000
      4     -23.2353      2.00000
      5     -23.2166      2.00000
      6     -23.0983      2.00000
      7     -23.0839      2.00000
      8     -23.0555      2.00000
      9     -23.0227      2.00000
     10     -23.0086      2.00000
     11      -8.3725      2.00000
     12      -0.4539      2.00000
     13       1.8712      2.00000
     14       3.8919      2.00000
     15       7.3877      0.00000
     16       9.0562      0.00000
     17       9.1933      0.00000
     18      10.6612      0.00000

 k-point   109 :       0.1534    0.1534    0.3068
  band No.  band energies     occupation 
      1     -23.3235      2.00000
      2     -23.3182      2.00000
      3     -23.2872      2.00000
      4     -23.2384      2.00000
      5     -23.2225      2.00000
      6     -23.0933      2.00000
      7     -23.0809      2.00000
      8     -23.0500      2.00000
      9     -23.0281      2.00000
     10     -23.0109      2.00000
     11      -8.5620      2.00000
     12       0.0285      2.00000
     13       2.2248      2.00000
     14       4.0448      2.00000
     15       7.3137      0.00000
     16       8.8394      0.00000
     17       8.9558      0.00000
     18      10.6173      0.00000

 k-point   110 :       0.1364    0.1364    0.2727
  band No.  band energies     occupation 
      1     -23.3208      2.00000
      2     -23.3144      2.00000
      3     -23.2911      2.00000
      4     -23.2416      2.00000
      5     -23.2283      2.00000
      6     -23.0882      2.00000
      7     -23.0776      2.00000
      8     -23.0454      2.00000
      9     -23.0331      2.00000
     10     -23.0134      2.00000
     11      -8.7339      2.00000
     12       0.5323      2.00000
     13       2.5878      2.00000
     14       4.1821      2.00000
     15       7.2220      0.00000
     16       8.6444      0.00000
     17       8.7414      0.00000
     18      10.4831      0.00000

 k-point   111 :       0.1193    0.1193    0.2386
  band No.  band energies     occupation 
      1     -23.3179      2.00000
      2     -23.3110      2.00000
      3     -23.2942      2.00000
      4     -23.2449      2.00000
      5     -23.2341      2.00000
      6     -23.0831      2.00000
      7     -23.0741      2.00000
      8     -23.0418      2.00000
      9     -23.0378      2.00000
     10     -23.0163      2.00000
     11      -8.8871      2.00000
     12       1.0564      2.00000
     13       2.9540      2.00000
     14       4.3024      2.00000
     15       7.1168      0.00000
     16       8.4714      0.00000
     17       8.5506      0.00000
     18      10.2236      0.00000

 k-point   112 :       0.1023    0.1023    0.2045
  band No.  band energies     occupation 
      1     -23.3147      2.00000
      2     -23.3080      2.00000
      3     -23.2965      2.00000
      4     -23.2484      2.00000
      5     -23.2398      2.00000
      6     -23.0780      2.00000
      7     -23.0705      2.00000
      8     -23.0420      2.00000
      9     -23.0393      2.00000
     10     -23.0195      2.00000
     11      -9.0210      2.00000
     12       1.5990      2.00000
     13       3.3158      2.00000
     14       4.4051      2.00000
     15       6.9982      0.00000
     16       8.3210      0.00000
     17       8.3834      0.00000
     18       9.8440      0.00000

 k-point   113 :       0.0852    0.0852    0.1705
  band No.  band energies     occupation 
      1     -23.3114      2.00000
      2     -23.3054      2.00000
      3     -23.2982      2.00000
      4     -23.2519      2.00000
      5     -23.2453      2.00000
      6     -23.0730      2.00000
      7     -23.0668      2.00000
      8     -23.0457      2.00000
      9     -23.0376      2.00000
     10     -23.0228      2.00000
     11      -9.1351      2.00000
     12       2.1576      2.00000
     13       3.6634      2.00000
     14       4.4901      2.00000
     15       6.8606      0.00000
     16       8.1932      0.00000
     17       8.2402      0.00000
     18       9.3880      0.00000

 k-point   114 :       0.0682    0.0682    0.1364
  band No.  band energies     occupation 
      1     -23.3081      2.00000
      2     -23.3032      2.00000
      3     -23.2990      2.00000
      4     -23.2551      2.00000
      5     -23.2505      2.00000
      6     -23.0679      2.00000
      7     -23.0631      2.00000
      8     -23.0486      2.00000
      9     -23.0367      2.00000
     10     -23.0264      2.00000
     11      -9.2290      2.00000
     12       2.7281      2.00000
     13       3.9845      2.00000
     14       4.5579      2.00000
     15       6.6899      0.00000
     16       8.0883      0.00000
     17       8.1211      0.00000
     18       8.9146      0.00000

 k-point   115 :       0.0511    0.0511    0.1023
  band No.  band energies     occupation 
      1     -23.3048      2.00000
      2     -23.3015      2.00000
      3     -23.2994      2.00000
      4     -23.2581      2.00000
      5     -23.2551      2.00000
      6     -23.0632      2.00000
      7     -23.0597      2.00000
      8     -23.0510      2.00000
      9     -23.0366      2.00000
     10     -23.0300      2.00000
     11      -9.3023      2.00000
     12       3.3039      2.00000
     13       4.2637      2.00000
     14       4.6093      2.00000
     15       6.4615      0.00000
     16       8.0065      0.00000
     17       8.0266      0.00000
     18       8.4860      0.00000

 k-point   116 :       0.0341    0.0341    0.0682
  band No.  band energies     occupation 
      1     -23.3021      2.00000
      2     -23.3004      2.00000
      3     -23.2995      2.00000
      4     -23.2604      2.00000
      5     -23.2590      2.00000
      6     -23.0589      2.00000
      7     -23.0568      2.00000
      8     -23.0527      2.00000
      9     -23.0369      2.00000
     10     -23.0335      2.00000
     11      -9.3548      2.00000
     12       3.8712      2.00000
     13       4.4831      2.00000
     14       4.6452      2.00000
     15       6.1522      0.00000
     16       7.9480      0.00000
     17       7.9576      0.00000
     18       8.1590      0.00000

 k-point   117 :       0.0170    0.0170    0.0341
  band No.  band energies     occupation 
      1     -23.3001      2.00000
      2     -23.2996      2.00000
      3     -23.2994      2.00000
      4     -23.2620      2.00000
      5     -23.2616      2.00000
      6     -23.0555      2.00000
      7     -23.0548      2.00000
      8     -23.0537      2.00000
      9     -23.0373      2.00000
     10     -23.0363      2.00000
     11      -9.3864      2.00000
     12       4.3908      2.00000
     13       4.6244      2.00000
     14       4.6664      2.00000
     15       5.7819      0.00000
     16       7.9129      0.00000
     17       7.9154      0.00000
     18       7.9642      0.00000

 k-point   118 :       0.0000    0.0000    0.0000
  band No.  band energies     occupation 
      1     -23.2992      2.00000
      2     -23.2992      2.00000
      3     -23.2992      2.00000
      4     -23.2625      2.00000
      5     -23.2625      2.00000
      6     -23.0541      2.00000
      7     -23.0541      2.00000
      8     -23.0541      2.00000
      9     -23.0375      2.00000
     10     -23.0375      2.00000
     11      -9.3969      2.00000
     12       4.6734      2.00000
     13       4.6734      2.00000
     14       4.6734      2.00000
     15       5.5466      0.00000
     16       7.9011      0.00000
     17       7.9011      0.00000
     18       7.9011      0.00000


--------------------------------------------------------------------------------------------------------


 soft charge-density along one line, spin component            1
         0         1         2         3         4         5         6         7         8         9
 total charge-density along one line
 
 pseudopotential strength for first ion, spin component:            1
-19.591   0.000  -0.000   0.000  -0.000   3.015  -0.000   0.000
  0.000 -19.591   0.000   0.000  -0.000  -0.000   3.015  -0.000
 -0.000   0.000 -19.591   0.000   0.000   0.000  -0.000   3.015
  0.000   0.000   0.000 -19.591   0.000  -0.000  -0.000  -0.000
 -0.000  -0.000   0.000   0.000 -19.591   0.000   0.000  -0.000
  3.015  -0.000   0.000  -0.000   0.000   2.503   0.000   0.000
 -0.000   3.015  -0.000  -0.000   0.000   0.000   2.503  -0.000
  0.000  -0.000   3.015  -0.000  -0.000   0.000  -0.000   2.503
 -0.000  -0.000  -0.000   3.015  -0.000   0.000   0.000  -0.000
  0.000   0.000  -0.000  -0.000   3.015   0.000   0.000   0.000
  0.000   0.000  -0.000   0.000  -0.000  -0.000  -0.000   0.000
  0.000   0.000  -0.000   0.000  -0.000  -0.000  -0.000   0.000
 -0.000  -0.000  -0.000   0.004  -0.000   0.000   0.000   0.000
  0.004  -0.000   0.000  -0.000  -0.000  -0.003   0.000  -0.000
 -0.000   0.004  -0.000  -0.000   0.000   0.000  -0.003   0.000
 -0.000  -0.000  -0.000   0.007  -0.000   0.000   0.000   0.000
  0.007  -0.000   0.000  -0.000  -0.000  -0.005   0.000  -0.000
 -0.000   0.007  -0.000  -0.000   0.000   0.000  -0.005   0.000
 total augmentation occupancy for first ion, spin component:            1
  1.994  -0.000  -0.000   0.000   0.000  -0.002   0.000  -0.000   0.000  -0.000  -0.000   0.000  -0.000   0.071   0.000   0.000
 -0.000   1.994   0.000   0.000  -0.000  -0.000  -0.002   0.000   0.000  -0.000   0.000  -0.000   0.000   0.000   0.071  -0.000
 -0.000   0.000   1.991  -0.000  -0.000  -0.000   0.000  -0.012  -0.000   0.000  -0.000   0.000   0.000  -0.000   0.000  -0.000
  0.000   0.000  -0.000   1.994  -0.000   0.000   0.000  -0.000  -0.002  -0.000  -0.000   0.000   0.071   0.000  -0.000  -0.025
  0.000  -0.000  -0.000  -0.000   1.991   0.000  -0.000  -0.000  -0.000  -0.012  -0.000   0.000   0.000   0.000  -0.000  -0.000
 -0.002  -0.000  -0.000   0.000   0.000   0.046  -0.000  -0.000   0.000  -0.000   0.000  -0.000   0.000   0.254  -0.000  -0.000
  0.000  -0.002   0.000   0.000  -0.000  -0.000   0.046   0.000   0.000  -0.000   0.000  -0.000   0.000  -0.000   0.254   0.000
 -0.000   0.000  -0.012  -0.000  -0.000  -0.000   0.000   0.012  -0.000   0.000   0.000  -0.000  -0.000  -0.000   0.000   0.000
  0.000   0.000  -0.000  -0.002  -0.000   0.000   0.000  -0.000   0.046   0.000  -0.000   0.000   0.254   0.000   0.000  -0.049
 -0.000  -0.000   0.000  -0.000  -0.012  -0.000  -0.000   0.000   0.000   0.012  -0.000   0.000  -0.000   0.000  -0.000   0.000
 -0.000   0.000  -0.000  -0.000  -0.000   0.000   0.000   0.000  -0.000  -0.000   5.028  -1.879  -0.000   0.000   0.000   0.000
  0.000  -0.000   0.000   0.000   0.000  -0.000  -0.000  -0.000   0.000   0.000  -1.879   0.797   0.000  -0.000  -0.000  -0.000
 -0.000   0.000   0.000   0.071   0.000   0.000   0.000  -0.000   0.254  -0.000  -0.000   0.000   2.315   0.000   0.000  -0.444
  0.071   0.000  -0.000   0.000   0.000   0.254  -0.000  -0.000   0.000   0.000   0.000  -0.000   0.000   2.315  -0.000  -0.000
  0.000   0.071   0.000  -0.000  -0.000  -0.000   0.254   0.000   0.000  -0.000   0.000  -0.000   0.000  -0.000   2.315   0.000
  0.000  -0.000  -0.000  -0.025  -0.000  -0.000   0.000   0.000  -0.049   0.000   0.000  -0.000  -0.444  -0.000   0.000   0.091
 -0.025  -0.000   0.000  -0.000  -0.000  -0.049   0.000   0.000   0.000  -0.000  -0.000  -0.000  -0.000  -0.444   0.000   0.000
 -0.000  -0.025  -0.000   0.000   0.000   0.000  -0.049   0.000  -0.000   0.000  -0.000   0.000  -0.000   0.000  -0.444   0.000


------------------------ aborting loop because EDIFF is reached ----------------------------------------





 total charge

# of ion       s       p       d       tot
------------------------------------------
    1        1.115   1.291  10.028  12.434
    2        1.115   1.291  10.028  12.434
--------------------------------------------------
tot          2.230   2.583  20.056  24.869
 
    FORLOC:  cpu time      0.0015: real time      0.0023
    FORHF :  cpu time    176.8800: real time    176.8344
    FORNL :  cpu time      0.2229: real time      0.2227
    FORCOR:  cpu time      0.1406: real time      0.1405
    OFIELD:  cpu time      0.0008: real time      0.0008

 VOLUME and BASIS-vectors are now :
 -----------------------------------------------------------------------------
  energy-cutoff  :      450.00
  volume of cell :       45.27
      direct lattice vectors                 reciprocal lattice vectors
     0.000000000  2.828770000  2.828770000    -0.176755268  0.176755268  0.176755268
     2.828770000  0.000000000  2.828770000     0.176755268 -0.176755268  0.176755268
     2.828770000  2.828770000  0.000000000     0.176755268  0.176755268 -0.176755268

  length of vectors
     4.000484899  4.000484899  4.000484899     0.306149105  0.306149105  0.306149105


 FORCES acting on ions:
    Electron-Ion                     Ewald-Force                    Non-Local-Force
 -----------------------------------------------------------------------------------------------
   -.428E-05 0.397E-05 -.190E-06   -.174E-13 -.136E-13 0.220E-12   0.104E-15 0.902E-16 0.902E-16
   0.397E-05 -.358E-05 -.359E-06   0.166E-13 0.140E-13 -.215E-12   -.763E-16 -.902E-16 -.101E-15
 -----------------------------------------------------------------------------------------------
   -.320E-06 0.383E-06 -.554E-06   -.805E-15 0.340E-15 0.466E-14   0.278E-16 0.000E+00 -.104E-16
 
 
 POSITION                                       TOTAL-FORCE (eV/Angst)
 -----------------------------------------------------------------------------------
      2.82877      2.82877      2.82877        -0.000000     -0.000000      0.000000
      4.24315      4.24315      4.24315         0.000000      0.000000      0.000000
 -----------------------------------------------------------------------------------
    total drift:                               -0.000000      0.000000     -0.000001


--------------------------------------------------------------------------------------------------------



  FREE ENERGIE OF THE ION-ELECTRON SYSTEM (eV)
  ---------------------------------------------------
  free  energy   TOTEN  =       -10.71728704 eV

  energy  without entropy=      -10.71728704  energy(sigma->0) =      -10.71728704
 


--------------------------------------------------------------------------------------------------------


    POTLOK:  cpu time      0.1625: real time      0.1625


--------------------------------------------------------------------------------------------------------


 writing wavefunctions
     LOOP+:  cpu time   2740.7670: real time   2744.2649
    4ORBIT:  cpu time      0.0000: real time      0.0000



 total charge

# of ion       s       p       d       tot
------------------------------------------
    1        1.115   1.291  10.028  12.434
    2        1.115   1.291  10.028  12.434
--------------------------------------------------
tot          2.230   2.583  20.056  24.869
 

 total amount of memory used by VASP MPI-rank0   185525. kBytes
=======================================================================

   base      :      30000. kBytes
   nonl-proj :      17058. kBytes
   fftplans  :      16524. kBytes
   grid      :       6018. kBytes
   one-center:         31. kBytes
   HF        :         64. kBytes
   nonlr-proj:       1444. kBytes
   wavefun   :     105825. kBytes
   fock_wrk  :       8561. kBytes
 
  
  
 General timing and accounting informations for this job:
 ========================================================
  
                  Total CPU time used (sec):     2761.898
                            User time (sec):     2757.833
                          System time (sec):        4.065
                         Elapsed time (sec):     2778.240
  
                   Maximum memory used (kb):     3094808.
                   Average memory used (kb):          N/A
  
                          Minor page faults:      1947104
                          Major page faults:         3739
                 Voluntary context switches:       107336
