    2    2    1    1
  0.2263565E+02  0.4000485E-09  0.4000485E-09  0.4000485E-09  0.5000000E-15
   1.0000000000000000E-004
  CAR 
 unknown system                          
     28     56     18

  0.1262379E-14  0.1262379E-14  0.1262379E-14  0.7513148E-03
      1        -19.822281   1.000000
      2        -19.822281   1.000000
      3        -19.822280   1.000000
      4        -19.786817   1.000000
      5        -19.786817   1.000000
      6        -19.575634   1.000000
      7        -19.575634   1.000000
      8        -19.575633   1.000000
      9        -19.562563   1.000000
     10        -19.562563   1.000000
     11         -7.781066   1.000000
     12          4.991541   0.837786
     13          4.991556   0.837680
     14          4.991556   0.837680
     15          5.027546   0.486846
     16          7.546612   0.000000
     17          7.546619   0.000000
     18          7.546620   0.000000

  0.9090909E-01  0.1256011E-14  0.1254772E-14  0.6010518E-02
      1        -19.827376   1.000000
      2        -19.827376   1.000000
      3        -19.821034   1.000000
      4        -19.780017   1.000000
      5        -19.780017   1.000000
      6        -19.583461   1.000000
      7        -19.583460   1.000000
      8        -19.577209   1.000000
      9        -19.555777   1.000000
     10        -19.555777   1.000000
     11         -7.680109   1.000000
     12          3.309337   1.000000
     13          4.796635   1.000000
     14          4.796648   1.000000
     15          5.993056   0.000000
     16          7.807258   0.000000
     17          7.807265   0.000000
     18          8.024834   0.000000

  0.1818182E+00  0.1253606E-14  0.1246664E-14  0.6010518E-02
      1        -19.835670   1.000000
      2        -19.835669   1.000000
      3        -19.817506   1.000000
      4        -19.767171   1.000000
      5        -19.767171   1.000000
      6        -19.594620   1.000000
      7        -19.594620   1.000000
      8        -19.581597   1.000000
      9        -19.547085   1.000000
     10        -19.547084   1.000000
     11         -7.381788   1.000000
     12          1.534062   1.000000
     13          4.401047   1.000000
     14          4.401059   1.000000
     15          5.907023   0.000000
     16          8.323490   0.000000
     17          8.323498   0.000000
     18          9.414981   0.000000

  0.2727273E+00  0.1246000E-14  0.1245496E-14  0.6010518E-02
      1        -19.842053   1.000000
      2        -19.842052   1.000000
      3        -19.812635   1.000000
      4        -19.755690   1.000000
      5        -19.755690   1.000000
      6        -19.603445   1.000000
      7        -19.603444   1.000000
      8        -19.587307   1.000000
      9        -19.540743   1.000000
     10        -19.540742   1.000000
     11         -6.904703   1.000000
     12         -0.119884   1.000000
     13          4.022161   1.000000
     14          4.022172   1.000000
     15          5.588031   0.000000
     16          8.691217   0.000000
     17          8.691225   0.000000
     18         11.041406   0.000000

  0.3636364E+00  0.1244146E-14  0.1244328E-14  0.6010518E-02
      1        -19.845613   1.000000
      2        -19.845611   1.000000
      3        -19.808165   1.000000
      4        -19.748294   1.000000
      5        -19.748294   1.000000
      6        -19.608513   1.000000
      7        -19.608513   1.000000
      8        -19.592694   1.000000
      9        -19.537010   1.000000
     10        -19.537008   1.000000
     11         -6.306447   1.000000
     12         -1.527538   1.000000
     13          3.746762   1.000000
     14          3.746773   1.000000
     15          5.330272   0.000000
     16          8.777681   0.000000
     17          8.777689   0.000000
     18         12.237498   0.000000

  0.4545455E+00  0.1258494E-14  0.1243160E-14  0.6010518E-02
      1        -19.846941   1.000000
      2        -19.846940   1.000000
      3        -19.805096   1.000000
      4        -19.745101   1.000000
      5        -19.745101   1.000000
      6        -19.610290   1.000000
      7        -19.610289   1.000000
      8        -19.595947   1.000000
      9        -19.535338   1.000000
     10        -19.535336   1.000000
     11         -5.782001   1.000000
     12         -2.463022   1.000000
     13          3.604430   1.000000
     14          3.604441   1.000000
     15          5.194414   0.000001
     16          8.748621   0.000000
     17          8.748628   0.000000
     18         12.150957   0.000000

  0.9090909E-01  0.9090909E-01  0.1261689E-14  0.4507889E-02
      1        -19.827769   1.000000
      2        -19.825543   1.000000
      3        -19.825543   1.000000
      4        -19.782052   1.000000
      5        -19.772903   1.000000
      6        -19.597748   1.000000
      7        -19.570882   1.000000
      8        -19.570881   1.000000
      9        -19.566958   1.000000
     10        -19.550882   1.000000
     11         -7.646197   1.000000
     12          3.257013   1.000000
     13          4.452325   1.000000
     14          4.452334   1.000000
     15          6.696207   0.000000
     16          7.157883   0.000000
     17          8.256631   0.000000
     18          8.256637   0.000000

  0.1818182E+00  0.9090909E-01  0.1252435E-14  0.1803156E-01
      1        -19.836640   1.000000
      2        -19.831381   1.000000
      3        -19.822248   1.000000
      4        -19.773130   1.000000
      5        -19.759166   1.000000
      6        -19.612537   1.000000
      7        -19.581011   1.000000
      8        -19.570920   1.000000
      9        -19.557645   1.000000
     10        -19.544082   1.000000
     11         -7.412639   1.000000
     12          1.920260   1.000000
     13          4.015471   1.000000
     14          4.074015   1.000000
     15          6.882178   0.000000
     16          7.329830   0.000000
     17          8.882523   0.000000
     18          9.233925   0.000000

  0.2727273E+00  0.9090909E-01  0.1244328E-14  0.1803156E-01
      1        -19.845583   1.000000
      2        -19.838188   1.000000
      3        -19.814796   1.000000
      4        -19.761298   1.000000
      5        -19.746082   1.000000
      6        -19.623600   1.000000
      7        -19.592374   1.000000
      8        -19.577818   1.000000
      9        -19.548183   1.000000
     10        -19.536268   1.000000
     11         -6.991928   1.000000
     12          0.341232   1.000000
     13          3.610355   1.000000
     14          3.652289   1.000000
     15          6.583889   0.000000
     16          7.939695   0.000000
     17          9.322012   0.000000
     18         10.229220   0.000000

  0.3636364E+00  0.9090909E-01  0.1270915E-14  0.1803156E-01
      1        -19.851707   1.000000
      2        -19.843469   1.000000
      3        -19.806215   1.000000
      4        -19.751173   1.000000
      5        -19.738256   1.000000
      6        -19.628173   1.000000
      7        -19.602069   1.000000
      8        -19.587724   1.000000
      9        -19.541008   1.000000
     10        -19.530327   1.000000
     11         -6.422772   1.000000
     12         -1.110907   1.000000
     13          3.180545   1.000000
     14          3.427012   1.000000
     15          6.283213   0.000000
     16          8.349979   0.000000
     17          9.388052   0.000000
     18         11.142132   0.000000

  0.4545455E+00  0.9090909E-01  0.1241992E-14  0.1803156E-01
      1        -19.854525   1.000000
      2        -19.847049   1.000000
      3        -19.798725   1.000000
      4        -19.743466   1.000000
      5        -19.737320   1.000000
      6        -19.625081   1.000000
      7        -19.610245   1.000000
      8        -19.597356   1.000000
      9        -19.535703   1.000000
     10        -19.527488   1.000000
     11         -5.833496   1.000000
     12         -2.222598   1.000000
     13          2.865534   1.000000
     14          3.360491   1.000000
     15          6.081501   0.000000
     16          8.495165   0.000000
     17          9.233562   0.000000
     18         12.152341   0.000000

 -0.4545455E+00  0.9090909E-01  0.1225918E-14  0.1803156E-01
      1        -19.854454   1.000000
      2        -19.849410   1.000000
      3        -19.795361   1.000000
      4        -19.741353   1.000000
      5        -19.738353   1.000000
      6        -19.616979   1.000000
      7        -19.615980   1.000000
      8        -19.603895   1.000000
      9        -19.532250   1.000000
     10        -19.528190   1.000000
     11         -5.610882   1.000000
     12         -2.576617   1.000000
     13          2.697012   1.000000
     14          3.453444   1.000000
     15          6.009565   0.000000
     16          8.617977   0.000000
     17          9.055718   0.000000
     18         12.509828   0.000000

 -0.3636364E+00  0.9090909E-01  0.1252506E-14  0.1803156E-01
      1        -19.851390   1.000000
      2        -19.850064   1.000000
      3        -19.797909   1.000000
      4        -19.747652   1.000000
      5        -19.737008   1.000000
      6        -19.620679   1.000000
      7        -19.608467   1.000000
      8        -19.601053   1.000000
      9        -19.532590   1.000000
     10        -19.530937   1.000000
     11         -6.017696   1.000000
     12         -1.904455   1.000000
     13          2.693167   1.000000
     14          3.693060   1.000000
     15          6.072447   0.000000
     16          8.801134   0.000000
     17          8.905833   0.000000
     18         12.251711   0.000000

 -0.2727273E+00  0.9090909E-01  0.1251337E-14  0.1803156E-01
      1        -19.848329   1.000000
      2        -19.845650   1.000000
      3        -19.805134   1.000000
      4        -19.755164   1.000000
      5        -19.741868   1.000000
      6        -19.618761   1.000000
      7        -19.606133   1.000000
      8        -19.587263   1.000000
      9        -19.540434   1.000000
     10        -19.532391   1.000000
     11         -6.626228   1.000000
     12         -0.649728   1.000000
     13          2.869619   1.000000
     14          4.050799   1.000000
     15          6.255612   0.000000
     16          8.689728   0.000000
     17          8.917358   0.000000
     18         11.105879   0.000000

 -0.1818182E+00  0.9090909E-01  0.1277925E-14  0.1803156E-01
      1        -19.843470   1.000000
      2        -19.837511   1.000000
      3        -19.813962   1.000000
      4        -19.764733   1.000000
      5        -19.753236   1.000000
      6        -19.610419   1.000000
      7        -19.600112   1.000000
      8        -19.573881   1.000000
      9        -19.551475   1.000000
     10        -19.537175   1.000000
     11         -7.152812   1.000000
     12          0.848127   1.000000
     13          3.250802   1.000000
     14          4.465846   1.000000
     15          6.494213   0.000000
     16          8.281711   0.000000
     17          8.575706   0.000000
     18         10.061105   0.000000

 -0.9090909E-01  0.9090909E-01  0.1262879E-14  0.9015778E-02
      1        -19.835564   1.000000
      2        -19.829056   1.000000
      3        -19.820688   1.000000
      4        -19.774989   1.000000
      5        -19.767772   1.000000
      6        -19.597750   1.000000
      7        -19.590685   1.000000
      8        -19.566106   1.000000
      9        -19.562193   1.000000
     10        -19.545144   1.000000
     11         -7.512970   1.000000
     12          2.323218   1.000000
     13          3.914941   1.000000
     14          4.794994   1.000000
     15          6.490568   0.000000
     16          7.848922   0.000000
     17          7.961904   0.000000
     18          9.064158   0.000000

  0.1818182E+00  0.1818182E+00  0.1260999E-14  0.4507889E-02
      1        -19.833644   1.000000
      2        -19.833643   1.000000
      3        -19.831739   1.000000
      4        -19.768253   1.000000
      5        -19.743804   1.000000
      6        -19.632924   1.000000
      7        -19.579665   1.000000
      8        -19.558750   1.000000
      9        -19.558750   1.000000
     10        -19.545859   1.000000
     11         -7.243812   1.000000
     12          1.535244   1.000000
     13          3.556691   1.000000
     14          3.556698   1.000000
     15          6.460237   0.000000
     16          7.843600   0.000000
     17          9.653571   0.000000
     18          9.653578   0.000000

  0.2727273E+00  0.1818182E+00  0.1250099E-14  0.1803156E-01
      1        -19.845007   1.000000
      2        -19.839177   1.000000
      3        -19.822292   1.000000
      4        -19.757314   1.000000
      5        -19.728017   1.000000
      6        -19.649757   1.000000
      7        -19.591066   1.000000
      8        -19.563172   1.000000
      9        -19.549429   1.000000
     10        -19.538378   1.000000
     11         -6.882942   1.000000
     12          0.434972   1.000000
     13          3.036450   1.000000
     14          3.181408   1.000000
     15          6.525082   0.000000
     16          7.875723   0.000000
     17         10.052024   0.000000
     18         10.285153   0.000000

  0.3636364E+00  0.1818182E+00  0.1255869E-14  0.1803156E-01
      1        -19.855505   1.000000
      2        -19.844755   1.000000
      3        -19.808075   1.000000
      4        -19.745215   1.000000
      5        -19.717262   1.000000
      6        -19.659141   1.000000
      7        -19.603925   1.000000
      8        -19.578162   1.000000
      9        -19.540359   1.000000
     10        -19.527044   1.000000
     11         -6.355671   1.000000
     12         -0.840066   1.000000
     13          2.426757   1.000000
     14          2.955550   1.000000
     15          6.699846   0.000000
     16          8.294391   0.000000
     17          9.947611   0.000000
     18         10.483607   0.000000

  0.4545455E+00  0.1818182E+00  0.1240823E-14  0.1803156E-01
      1        -19.862824   1.000000
      2        -19.849233   1.000000
      3        -19.793453   1.000000
      4        -19.734140   1.000000
      5        -19.715814   1.000000
      6        -19.657711   1.000000
      7        -19.616553   1.000000
      8        -19.594297   1.000000
      9        -19.533083   1.000000
     10        -19.518914   1.000000
     11         -5.744287   1.000000
     12         -1.977194   1.000000
     13          1.918858   1.000000
     14          2.903168   1.000000
     15          6.639676   0.000000
     16          8.859653   0.000000
     17         10.316222   0.000000
     18         10.457241   0.000000

 -0.4545455E+00  0.1818182E+00  0.1224750E-14  0.1803156E-01
      1        -19.865756   1.000000
      2        -19.852673   1.000000
      3        -19.782804   1.000000
      4        -19.724996   1.000000
      5        -19.723568   1.000000
      6        -19.646221   1.000000
      7        -19.628140   1.000000
      8        -19.606504   1.000000
      9        -19.527992   1.000000
     10        -19.515834   1.000000
     11         -5.337135   1.000000
     12         -2.598966   1.000000
     13          1.587585   1.000000
     14          3.026673   1.000000
     15          6.630471   0.000000
     16          8.987532   0.000000
     17         10.029640   0.000000
     18         11.839880   0.000000

 -0.3636364E+00  0.1818182E+00  0.1223582E-14  0.1803156E-01
      1        -19.863951   1.000000
      2        -19.854422   1.000000
      3        -19.780150   1.000000
      4        -19.736486   1.000000
      5        -19.720345   1.000000
      6        -19.635784   1.000000
      7        -19.628241   1.000000
      8        -19.611758   1.000000
      9        -19.525465   1.000000
     10        -19.518643   1.000000
     11         -5.577728   1.000000
     12         -2.238744   1.000000
     13          1.471102   1.000000
     14          3.311190   1.000000
     15          6.738362   0.000000
     16          9.110502   0.000000
     17          9.721128   0.000000
     18         12.192624   0.000000

 -0.2727273E+00  0.1818182E+00  0.1250169E-14  0.1803156E-01
      1        -19.857411   1.000000
      2        -19.853863   1.000000
      3        -19.787552   1.000000
      4        -19.748695   1.000000
      5        -19.724409   1.000000
      6        -19.634977   1.000000
      7        -19.614649   1.000000
      8        -19.603296   1.000000
      9        -19.527510   1.000000
     10        -19.526059   1.000000
     11         -6.172832   1.000000
     12         -1.226222   1.000000
     13          1.624477   1.000000
     14          3.718407   1.000000
     15          6.918668   0.000000
     16          9.289849   0.000000
     17          9.316339   0.000000
     18         10.764394   0.000000

 -0.1818182E+00  0.1818182E+00  0.1249001E-14  0.9015778E-02
      1        -19.850120   1.000000
      2        -19.847317   1.000000
      3        -19.801670   1.000000
      4        -19.757575   1.000000
      5        -19.737090   1.000000
      6        -19.625130   1.000000
      7        -19.608844   1.000000
      8        -19.583620   1.000000
      9        -19.540895   1.000000
     10        -19.529975   1.000000
     11         -6.737754   1.000000
     12         -0.085843   1.000000
     13          2.172372   1.000000
     14          4.163245   1.000000
     15          6.984130   0.000000
     16          8.745694   0.000000
     17          8.980855   0.000000
     18         10.146289   0.000000

  0.2727273E+00  0.2727273E+00  0.1260308E-14  0.4507889E-02
      1        -19.843308   1.000000
      2        -19.843307   1.000000
      3        -19.826784   1.000000
      4        -19.746649   1.000000
      5        -19.708247   1.000000
      6        -19.673196   1.000000
      7        -19.599805   1.000000
      8        -19.552823   1.000000
      9        -19.543513   1.000000
     10        -19.543513   1.000000
     11         -6.581110   1.000000
     12         -0.132742   1.000000
     13          2.780429   1.000000
     14          2.780436   1.000000
     15          5.890449   0.000000
     16          7.556054   0.000000
     17         11.235912   0.000000
     18         11.235922   0.000000

  0.3636364E+00  0.2727273E+00  0.1247762E-14  0.1803156E-01
      1        -19.853038   1.000000
      2        -19.847944   1.000000
      3        -19.813508   1.000000
      4        -19.733458   1.000000
      5        -19.692923   1.000000
      6        -19.689291   1.000000
      7        -19.612961   1.000000
      8        -19.569052   1.000000
      9        -19.535822   1.000000
     10        -19.529980   1.000000
     11         -6.102634   1.000000
     12         -1.058253   1.000000
     13          2.230735   1.000000
     14          2.526482   1.000000
     15          6.052083   0.000000
     16          7.380644   0.000000
     17         11.253663   0.000000
     18         11.768078   0.000000

  0.4545455E+00  0.2727273E+00  0.1253533E-14  0.1803156E-01
      1        -19.863932   1.000000
      2        -19.852000   1.000000
      3        -19.793760   1.000000
      4        -19.720094   1.000000
      5        -19.698019   1.000000
      6        -19.682524   1.000000
      7        -19.627474   1.000000
      8        -19.590296   1.000000
      9        -19.529021   1.000000
     10        -19.517228   1.000000
     11         -5.498742   1.000000
     12         -2.022955   1.000000
     13          1.514739   1.000000
     14          2.450242   1.000000
     15          6.267054   0.000000
     16          8.136646   0.000000
     17         10.926955   0.000000
     18         11.733363   0.000000

 -0.4545455E+00  0.2727273E+00  0.1279093E-14  0.1803156E-01
      1        -19.871097   1.000000
      2        -19.855245   1.000000
      3        -19.777526   1.000000
      4        -19.708095   1.000000
      5        -19.696755   1.000000
      6        -19.681149   1.000000
      7        -19.641799   1.000000
      8        -19.607305   1.000000
      9        -19.524224   1.000000
     10        -19.509460   1.000000
     11         -4.964570   1.000000
     12         -2.735658   1.000000
     13          0.959191   1.000000
     14          2.558346   1.000000
     15          6.361708   0.000000
     16          9.593492   0.000000
     17         10.734572   0.000000
     18         11.401349   0.000000

 -0.3636364E+00  0.2727273E+00  0.1222414E-14  0.1803156E-01
      1        -19.872587   1.000000
      2        -19.857041   1.000000
      3        -19.770614   1.000000
      4        -19.710667   1.000000
      5        -19.701499   1.000000
      6        -19.664304   1.000000
      7        -19.651483   1.000000
      8        -19.614354   1.000000
      9        -19.521869   1.000000
     10        -19.508356   1.000000
     11         -5.025057   1.000000
     12         -2.653910   1.000000
     13          0.705683   1.000000
     14          2.838690   1.000000
     15          6.564960   0.000000
     16         10.411982   0.000000
     17         10.920836   0.000000
     18         11.537688   0.000000

 -0.2727273E+00  0.2727273E+00  0.1221245E-14  0.9015778E-02
      1        -19.867692   1.000000
      2        -19.856749   1.000000
      3        -19.773406   1.000000
      4        -19.733481   1.000000
      5        -19.708261   1.000000
      6        -19.648227   1.000000
      7        -19.636288   1.000000
      8        -19.613636   1.000000
      9        -19.522467   1.000000
     10        -19.514745   1.000000
     11         -5.588610   1.000000
     12         -1.942272   1.000000
     13          0.879359   1.000000
     14          3.254084   1.000000
     15          6.848215   0.000000
     16         10.201154   0.000000
     17         10.505273   0.000000
     18         10.555109   0.000000

  0.3636364E+00  0.3636364E+00  0.1259618E-14  0.4507889E-02
      1        -19.851293   1.000000
      2        -19.851292   1.000000
      3        -19.811611   1.000000
      4        -19.719080   1.000000
      5        -19.714611   1.000000
      6        -19.669968   1.000000
      7        -19.625898   1.000000
      8        -19.570864   1.000000
      9        -19.530032   1.000000
     10        -19.530031   1.000000
     11         -5.671589   1.000000
     12         -1.725710   1.000000
     13          2.233826   1.000000
     14          2.233833   1.000000
     15          5.589416   0.000000
     16          6.670529   0.000000
     17         12.851519   0.000000
     18         12.851526   0.000000

  0.4545455E+00  0.3636364E+00  0.1245426E-14  0.1803156E-01
      1        -19.858986   1.000000
      2        -19.854395   1.000000
      3        -19.794256   1.000000
      4        -19.729403   1.000000
      5        -19.704206   1.000000
      6        -19.655061   1.000000
      7        -19.641041   1.000000
      8        -19.589453   1.000000
      9        -19.525114   1.000000
     10        -19.520833   1.000000
     11         -5.092241   1.000000
     12         -2.515587   1.000000
     13          1.736014   1.000000
     14          2.117025   1.000000
     15          5.829572   0.000000
     16          6.671501   0.000000
     17         12.836203   0.000000
     18         13.220648   0.000000

 -0.4545455E+00  0.3636364E+00  0.1277925E-14  0.1803156E-01
      1        -19.868662   1.000000
      2        -19.856490   1.000000
      3        -19.774448   1.000000
      4        -19.727449   1.000000
      5        -19.690092   1.000000
      6        -19.656696   1.000000
      7        -19.654646   1.000000
      8        -19.609843   1.000000
      9        -19.521770   1.000000
     10        -19.510808   1.000000
     11         -4.486458   1.000000
     12         -3.195929   1.000000
     13          1.035263   1.000000
     14          2.187983   1.000000
     15          6.002788   0.000000
     16          7.819433   0.000000
     17         12.483159   0.000000
     18         12.908196   0.000000

 -0.3636364E+00  0.3636364E+00  0.1276756E-14  0.9015778E-02
      1        -19.874200   1.000000
      2        -19.857575   1.000000
      3        -19.768481   1.000000
      4        -19.701485   1.000000
      5        -19.685901   1.000000
      6        -19.677953   1.000000
      7        -19.663770   1.000000
      8        -19.615683   1.000000
      9        -19.520646   1.000000
     10        -19.505834   1.000000
     11         -4.469749   1.000000
     12         -3.190686   1.000000
     13          0.597246   1.000000
     14          2.439045   1.000000
     15          6.226513   0.000000
     16          9.543375   0.000000
     17         11.974702   0.000000
     18         12.118101   0.000000

  0.4545455E+00  0.4545455E+00  0.1258928E-14  0.4507889E-02
      1        -19.855888   1.000000
      2        -19.855888   1.000000
      3        -19.786635   1.000000
      4        -19.753501   1.000000
      5        -19.688091   1.000000
      6        -19.656211   1.000000
      7        -19.632249   1.000000
      8        -19.598244   1.000000
      9        -19.522324   1.000000
     10        -19.522323   1.000000
     11         -4.536878   1.000000
     12         -3.208194   1.000000
     13          1.953690   1.000000
     14          1.953697   1.000000
     15          5.608849   0.000000
     16          5.972333   0.000000
     17         14.240102   0.000000
     18         14.240113   0.000000

 -0.4545455E+00  0.4545455E+00  0.1276756E-14  0.9015778E-02
      1        -19.861109   1.000000
      2        -19.856654   1.000000
      3        -19.770507   1.000000
      4        -19.759997   1.000000
      5        -19.673664   1.000000
      6        -19.671110   1.000000
      7        -19.624340   1.000000
      8        -19.614755   1.000000
      9        -19.521133   1.000000
     10        -19.517204   1.000000
     11         -3.944787   1.000000
     12         -3.816227   1.000000
     13          1.570110   1.000000
     14          1.978206   1.000000
     15          5.803381   0.000000
     16          6.361472   0.000000
     17         13.947942   0.000000
     18         14.084387   0.000000

  0.2727273E+00  0.1818182E+00  0.9090909E-01  0.1803156E-01
      1        -19.843463   1.000000
      2        -19.837550   1.000000
      3        -19.817641   1.000000
      4        -19.764597   1.000000
      5        -19.744255   1.000000
      6        -19.628459   1.000000
      7        -19.589726   1.000000
      8        -19.568500   1.000000
      9        -19.553534   1.000000
     10        -19.537510   1.000000
     11         -7.116104   1.000000
     12          0.950888   1.000000
     13          3.030726   1.000000
     14          3.990395   1.000000
     15          7.242140   0.000000
     16          7.384549   0.000000
     17          9.402023   0.000000
     18          9.822618   0.000000

  0.3636364E+00  0.1818182E+00  0.9090909E-01  0.3606311E-01
      1        -19.851203   1.000000
      2        -19.845780   1.000000
      3        -19.805737   1.000000
      4        -19.754168   1.000000
      5        -19.730919   1.000000
      6        -19.639904   1.000000
      7        -19.599801   1.000000
      8        -19.582517   1.000000
      9        -19.540860   1.000000
     10        -19.530279   1.000000
     11         -6.641204   1.000000
     12         -0.322170   1.000000
     13          2.384055   1.000000
     14          3.659036   1.000000
     15          7.153590   0.000000
     16          7.981556   0.000000
     17          9.785601   0.000000
     18         10.098185   0.000000

  0.4545455E+00  0.1818182E+00  0.9090909E-01  0.3606311E-01
      1        -19.858203   1.000000
      2        -19.850568   1.000000
      3        -19.793278   1.000000
      4        -19.744278   1.000000
      5        -19.724024   1.000000
      6        -19.643414   1.000000
      7        -19.608550   1.000000
      8        -19.599071   1.000000
      9        -19.532260   1.000000
     10        -19.523973   1.000000
     11         -6.042836   1.000000
     12         -1.573104   1.000000
     13          2.038773   1.000000
     14          3.315511   1.000000
     15          6.947195   0.000000
     16          8.382725   0.000000
     17          9.858456   0.000000
     18         10.877127   0.000000

 -0.4545455E+00  0.1818182E+00  0.9090909E-01  0.3606311E-01
      1        -19.862176   1.000000
      2        -19.852434   1.000000
      3        -19.785176   1.000000
      4        -19.735552   1.000000
      5        -19.725028   1.000000
      6        -19.638442   1.000000
      7        -19.620322   1.000000
      8        -19.607478   1.000000
      9        -19.528655   1.000000
     10        -19.519738   1.000000
     11         -5.511180   1.000000
     12         -2.457155   1.000000
     13          1.890236   1.000000
     14          3.112172   1.000000
     15          6.827473   0.000000
     16          8.410171   0.000000
     17          9.878552   0.000000
     18         12.122769   0.000000

  0.3636364E+00  0.2727273E+00  0.9090909E-01  0.1803156E-01
      1        -19.850275   1.000000
      2        -19.847792   1.000000
      3        -19.812278   1.000000
      4        -19.745984   1.000000
      5        -19.711868   1.000000
      6        -19.666805   1.000000
      7        -19.602222   1.000000
      8        -19.572410   1.000000
      9        -19.538336   1.000000
     10        -19.532217   1.000000
     11         -6.464718   1.000000
     12         -0.452444   1.000000
     13          2.286917   1.000000
     14          2.977359   1.000000
     15          6.675015   0.000000
     16          7.824290   0.000000