       N       E                     dE             d eps       ncg     rms          rms(c)
DAV:   1     0.152130435243E+03    0.15213E+03   -0.14503E+04  2072   0.389E+03
DAV:   2     0.982810725650E+01   -0.14230E+03   -0.14021E+03  2026   0.482E+02
DAV:   3    -0.852086469609E+01   -0.18349E+02   -0.18216E+02  2170   0.139E+02
DAV:   4    -0.908499951322E+01   -0.56413E+00   -0.56309E+00  2386   0.279E+01
DAV:   5    -0.909409852241E+01   -0.90990E-02   -0.90875E-02  2214   0.358E+00    0.320E+00
DAV:   6    -0.903656483159E+01    0.57534E-01   -0.23174E-02  2168   0.158E+00    0.191E+00
DAV:   7    -0.900528460337E+01    0.31280E-01   -0.56629E-02  2112   0.233E+00    0.152E-01
DAV:   8    -0.900706689968E+01   -0.17823E-02   -0.64569E-03  2310   0.117E+00    0.474E-02
DAV:   9    -0.900709603625E+01   -0.29137E-04   -0.24615E-04  2594   0.305E-01    0.175E-02
DAV:  10    -0.900711998239E+01   -0.23946E-04   -0.66222E-05  2184   0.111E-01    0.615E-03
DAV:  11    -0.900712129535E+01   -0.13130E-05   -0.89887E-06  2580   0.596E-02    0.143E-03
DAV:  12    -0.900712139409E+01   -0.98737E-07   -0.39177E-07  1282   0.108E-02
   1 F= -.90071214E+01 E0= -.90070912E+01  d E =-.603237E-04
