 vasp.6.3.2 27Jun22 (build Nov 28 2025 11:56:12) complex                         
 executed on             LinuxGNU date 2026.01.21  21:42:32
 running    2 mpi-ranks, with    1 threads/rank
 distrk:  each k-point on    2 cores,    1 groups
 distr:  one band on NCORE=   1 cores,    2 groups


--------------------------------------------------------------------------------------------------------


 INCAR:
   ISTART = 1            (Read existing wavefunction, if there)
   ISPIN = 1            (Non-Spin polarised DFT)
   LREAL = .FALSE.       (Projection operators: automatic)
   ENCUT = 450          (Cut-off energy for plane wave basis set, in eV)
   PREC = Accurate   (Precision level: Normal or Accurate, set Accurate when perform structure lattice relaxation calculation)
   LWAVE = .TRUE.        (Write WAVECAR or not)
   LCHARG = .TRUE.        (Write CHGCAR or not)
   ADDGRID = .TRUE.        (Increase grid, helps GGA convergence)
   ISMEAR = 0            (gaussian smearing method)
   SIGMA = 0.05         (please check the width of the smearing)
   NELM = 60           (Max electronic SCF steps)
   EDIFF = 1E-06        (SCF energy convergence, in eV)

 POTCAR:    PAW_PBE Ge_d 03Jul2007                
 POTCAR:    PAW_PBE Ge_d 03Jul2007                
   VRHFIN =Ge: 3d4s4p                                                                               
   LEXCH  = PE                                                                                      
   EATOM  =  2596.2402 eV,  190.8183 Ry                                                             
                                                                                                    
   TITEL  = PAW_PBE Ge_d 03Jul2007                                                                  
   LULTRA =        F    use ultrasoft PP ?                                                          
   IUNSCR =        1    unscreen: 0-lin 1-nonlin 2-no                                               
   RPACOR =    2.000    partial core radius                                                         
   POMASS =   72.610; ZVAL   =   14.000    mass and valenz                                          
   RCORE  =    2.300    outmost cutoff radius                                                       
   RWIGS  =    2.300; RWIGS  =    1.217    wigner-seitz radius (au A)                               
   ENMAX  =  310.294; ENMIN  =  232.720 eV                                                          
   ICORE  =        3    local potential                                                             
   LCOR   =        T    correct aug charges                                                         
   LPAW   =        T    paw PP                                                                      
   EAUG   =  531.356                                                                                
   DEXC   =    0.000                                                                                
   RMAX   =    2.342    core radius for proj-oper                                                   
   RAUG   =    1.300    factor for augmentation sphere                                              
   RDEP   =    2.318    radius for radial grids                                                     
   RDEPT  =    1.783    core radius for aug-charge                                                  
                                                                                                    
   Atomic configuration                                                                             
    9 entries                                                                                       
     n  l   j            E        occ.                                                              
     1  0  0.50    -10959.8463   2.0000                                                             
     2  0  0.50     -1371.6056   2.0000                                                             
     2  1  1.50     -1198.4791   6.0000                                                             
     3  0  0.50      -168.4733   2.0000                                                             
     3  1  1.50      -115.6019   6.0000                                                             
     3  2  2.50       -29.3106  10.0000                                                             
     4  0  0.50       -11.7309   2.0000                                                             
     4  1  0.50        -3.8952   2.0000                                                             
     4  3  2.50        -4.0817   0.0000                                                             
   Description                                                                                      
     l       E           TYP  RCUT    TYP  RCUT                                                     
     2    -29.3105938     23  2.200                                                                 
     2    -13.6058260     23  2.200                                                                 
     0    -11.7309493     23  2.300                                                                 
     0     -7.4578696     23  2.300                                                                 
     1     -3.8952261     23  2.300                                                                 
     1      6.1178114     23  2.300                                                                 
     3     -1.3605826     23  2.300                                                                 
  local pseudopotential read in
  partial core-charges read in
  partial kinetic energy density read in
  atomic valenz-charges read in
  non local Contribution for L=           2  read in
    real space projection operators read in
  non local Contribution for L=           2  read in
    real space projection operators read in
  non local Contribution for L=           0  read in
    real space projection operators read in
  non local Contribution for L=           0  read in
    real space projection operators read in
  non local Contribution for L=           1  read in
    real space projection operators read in
  non local Contribution for L=           1  read in
    real space projection operators read in
    PAW grid and wavefunctions read in

   number of l-projection  operators is LMAX  =           6
   number of lm-projection operators is LMMAX =          18

  PAW_PBE Ge_d 03Jul2007                :
 energy of atom  1       EATOM=-2596.2402
 kinetic energy error for atom=    0.0077 (will be added to EATOM!!)


 POSCAR: cubic diamond Ge
  positions in direct lattice
  No initial velocities read in
 exchange correlation table for  LEXCH =        8
   RHO(1)=    0.500       N(1)  =     2000
   RHO(2)=  100.500       N(2)  =     4000



--------------------------------------------------------------------------------------------------------


 ion  position               nearest neighbor table
   1  0.875  0.875  0.875-   2 2.45   2 2.45   2 2.45   2 2.45
   2  0.125  0.125  0.125-   1 2.45   1 2.45   1 2.45   1 2.45

  LATTYP: Found a face centered cubic cell.
 ALAT       =     5.6575400000
  
  Lattice vectors:
  
 A1 = (   0.0000000000,   2.8287700000,   2.8287700000)
 A2 = (   2.8287700000,   0.0000000000,   2.8287700000)
 A3 = (   2.8287700000,   2.8287700000,   0.0000000000)


Analysis of symmetry for initial positions (statically):
=====================================================================
 Subroutine PRICEL returns:
 Original cell was already a primitive cell.
 

 Routine SETGRP: Setting up the symmetry group for a 
 face centered cubic supercell.


 Subroutine GETGRP returns: Found 48 space group operations
 (whereof 12 operations were pure point group operations)
 out of a pool of 48 trial point group operations.


The static configuration has the point symmetry D_3d.
 The point group associated with its full space group is O_h .


Analysis of symmetry for dynamics (positions and initial velocities):
=====================================================================
 Subroutine PRICEL returns:
 Original cell was already a primitive cell.
 

 Routine SETGRP: Setting up the symmetry group for a 
 face centered cubic supercell.


 Subroutine GETGRP returns: Found 48 space group operations
 (whereof 12 operations were pure point group operations)
 out of a pool of 48 trial point group operations.


The dynamic configuration has the point symmetry D_3d.
 The point group associated with its full space group is O_h .


 Subroutine INISYM returns: Found 48 space group operations
 (whereof 12 operations are pure point group operations),
 and found     1 'primitive' translations


----------------------------------------------------------------------------------------

                                     Primitive cell                                     

  volume of cell :      45.2713

  direct lattice vectors                    reciprocal lattice vectors
     0.000000000  2.828770000  2.828770000    -0.176755268  0.176755268  0.176755268
     2.828770000  0.000000000  2.828770000     0.176755268 -0.176755268  0.176755268
     2.828770000  2.828770000  0.000000000     0.176755268  0.176755268 -0.176755268

  length of vectors
     4.000484899  4.000484899  4.000484899     0.306149105  0.306149105  0.306149105

  position of ions in fractional coordinates (direct lattice)
     0.875000000  0.875000000  0.875000000
     0.125000000  0.125000000  0.125000000

  ion indices of the primitive-cell ions
   primitive index   ion index
                 1           1
                 2           2

----------------------------------------------------------------------------------------



 KPOINTS: K-Spacing Value to Generate K-Mesh: 0.03

Automatic generation of k-mesh.
 Grid dimensions read from file:
 generate k-points for:   11   11   11

 Generating k-lattice:

  Cartesian coordinates                     Fractional coordinates (reciprocal lattice)
    -0.016068661  0.016068661  0.016068661     0.090909091  0.000000000 -0.000000000
     0.016068661 -0.016068661  0.016068661     0.000000000  0.090909091  0.000000000
     0.016068661  0.016068661 -0.016068661    -0.000000000 -0.000000000  0.090909091

  Length of vectors
     0.027831737  0.027831737  0.027831737

  Shift w.r.t. Gamma in fractional coordinates (k-lattice)
     0.000000000  0.000000000  0.000000000

 
 Subroutine IBZKPT returns following result:
 ===========================================
 
 Found     56 irreducible k-points:
 
 Following reciprocal coordinates:
            Coordinates               Weight
  0.000000  0.000000  0.000000      1.000000
  0.090909  0.000000  0.000000      8.000000
  0.181818  0.000000  0.000000      8.000000
  0.272727  0.000000  0.000000      8.000000
  0.363636  0.000000  0.000000      8.000000
  0.454545  0.000000  0.000000      8.000000
  0.090909  0.090909  0.000000      6.000000
  0.181818  0.090909  0.000000     24.000000
  0.272727  0.090909  0.000000     24.000000
  0.363636  0.090909  0.000000     24.000000
  0.454545  0.090909  0.000000     24.000000
 -0.454545  0.090909  0.000000     24.000000
 -0.363636  0.090909  0.000000     24.000000
 -0.272727  0.090909  0.000000     24.000000
 -0.181818  0.090909  0.000000     24.000000
 -0.090909  0.090909  0.000000     12.000000
  0.181818  0.181818  0.000000      6.000000
  0.272727  0.181818  0.000000     24.000000
  0.363636  0.181818  0.000000     24.000000
  0.454545  0.181818  0.000000     24.000000
 -0.454545  0.181818  0.000000     24.000000
 -0.363636  0.181818  0.000000     24.000000
 -0.272727  0.181818  0.000000     24.000000
 -0.181818  0.181818  0.000000     12.000000
  0.272727  0.272727  0.000000      6.000000
  0.363636  0.272727  0.000000     24.000000
  0.454545  0.272727  0.000000     24.000000
 -0.454545  0.272727  0.000000     24.000000
 -0.363636  0.272727  0.000000     24.000000
 -0.272727  0.272727  0.000000     12.000000
  0.363636  0.363636  0.000000      6.000000
  0.454545  0.363636  0.000000     24.000000
 -0.454545  0.363636  0.000000     24.000000
 -0.363636  0.363636  0.000000     12.000000
  0.454545  0.454545  0.000000      6.000000
 -0.454545  0.454545  0.000000     12.000000
  0.272727  0.181818  0.090909     24.000000
  0.363636  0.181818  0.090909     48.000000
  0.454545  0.181818  0.090909     48.000000
 -0.454545  0.181818  0.090909     48.000000
  0.363636  0.272727  0.090909     24.000000
  0.454545  0.272727  0.090909     48.000000
 -0.454545  0.272727  0.090909     48.000000
 -0.363636  0.272727  0.090909     48.000000
 -0.272727  0.272727  0.090909     48.000000
 -0.181818  0.272727  0.090909     24.000000
  0.454545  0.363636  0.090909     24.000000
 -0.454545  0.363636  0.090909     48.000000
 -0.363636  0.363636  0.090909     48.000000
 -0.272727  0.363636  0.090909     24.000000
 -0.454545  0.454545  0.090909     24.000000
 -0.363636  0.454545  0.090909     24.000000
 -0.454545  0.363636  0.181818     24.000000
 -0.363636  0.363636  0.181818     48.000000
 -0.363636  0.454545  0.181818     24.000000
 -0.272727  0.454545  0.181818     24.000000
 
 Following cartesian coordinates:
            Coordinates               Weight
  0.000000  0.000000  0.000000      1.000000
 -0.090909  0.090909  0.090909      8.000000
 -0.181818  0.181818  0.181818      8.000000
 -0.272727  0.272727  0.272727      8.000000
 -0.363636  0.363636  0.363636      8.000000
 -0.454545  0.454545  0.454545      8.000000
  0.000000  0.000000  0.181818      6.000000
 -0.090909  0.090909  0.272727     24.000000
 -0.181818  0.181818  0.363636     24.000000
 -0.272727  0.272727  0.454545     24.000000
 -0.363636  0.363636  0.545455     24.000000
  0.545455 -0.545455 -0.363636     24.000000
  0.454545 -0.454545 -0.272727     24.000000
  0.363636 -0.363636 -0.181818     24.000000
  0.272727 -0.272727 -0.090909     24.000000
  0.181818 -0.181818  0.000000     12.000000
  0.000000  0.000000  0.363636      6.000000
 -0.090909  0.090909  0.454545     24.000000
 -0.181818  0.181818  0.545455     24.000000
 -0.272727  0.272727  0.636364     24.000000
  0.636364 -0.636364 -0.272727     24.000000
  0.545455 -0.545455 -0.181818     24.000000
  0.454545 -0.454545 -0.090909     24.000000
  0.363636 -0.363636  0.000000     12.000000
  0.000000  0.000000  0.545455      6.000000
 -0.090909  0.090909  0.636364     24.000000
 -0.181818  0.181818  0.727273     24.000000
  0.727273 -0.727273 -0.181818     24.000000
  0.636364 -0.636364 -0.090909     24.000000
  0.545455 -0.545455  0.000000     12.000000
  0.000000  0.000000  0.727273      6.000000
 -0.090909  0.090909  0.818182     24.000000
  0.818182 -0.818182 -0.090909     24.000000
  0.727273 -0.727273  0.000000     12.000000
  0.000000  0.000000  0.909091      6.000000
  0.909091 -0.909091  0.000000     12.000000
  0.000000  0.181818  0.363636     24.000000
 -0.090909  0.272727  0.454545     48.000000
 -0.181818  0.363636  0.545455     48.000000
  0.727273 -0.545455 -0.363636     48.000000
  0.000000  0.181818  0.545455     24.000000
 -0.090909  0.272727  0.636364     48.000000
  0.818182 -0.636364 -0.272727     48.000000
  0.727273 -0.545455 -0.181818     48.000000
  0.636364 -0.454545 -0.090909     48.000000
  0.545455 -0.363636  0.000000     24.000000
  0.000000  0.181818  0.727273     24.000000
  0.909091 -0.727273 -0.181818     48.000000
  0.818182 -0.636364 -0.090909     48.000000
  0.727273 -0.545455  0.000000     24.000000
  1.000000 -0.818182 -0.090909     24.000000
  0.909091 -0.727273 -0.000000     24.000000
  1.000000 -0.636364 -0.272727     24.000000
  0.909091 -0.545455 -0.181818     48.000000
  1.000000 -0.636364 -0.090909     24.000000
  0.909091 -0.545455  0.000000     24.000000
 


--------------------------------------------------------------------------------------------------------




 Dimension of arrays:
   k-points           NKPTS =     56   k-points in BZ     NKDIM =     56   number of bands    NBANDS=     18
   number of dos      NEDOS =    301   number of ions     NIONS =      2
   non local maximal  LDIM  =      6   non local SUM 2l+1 LMDIM =     18
   total plane-waves  NPLWV =  21952
   max r-space proj   IRMAX =      1   max aug-charges    IRDMAX= 130646
   dimension x,y,z NGX =    28 NGY =   28 NGZ =   28
   dimension x,y,z NGXF=    56 NGYF=   56 NGZF=   56
   support grid    NGXF=   112 NGYF=  112 NGZF=  112
   ions per type =               2
   NGX,Y,Z   is equivalent  to a cutoff of  11.64, 11.64, 11.64 a.u.
   NGXF,Y,Z  is equivalent  to a cutoff of  23.27, 23.27, 23.27 a.u.

 SYSTEM =  unknown system                          
 POSCAR =  cubic diamond Ge                        

 Startparameter for this run:
   NWRITE =      2    write-flag & timer
   PREC   = accura    normal or accurate (medium, high low for compatibility)
   ISTART =      0    job   : 0-new  1-cont  2-samecut
   ICHARG =      2    charge: 1-file 2-atom 10-const
   ISPIN  =      1    spin polarized calculation?
   LNONCOLLINEAR =      F non collinear calculations
   LSORBIT =      F    spin-orbit coupling
   INIWAV =      1    electr: 0-lowe 1-rand  2-diag
   LASPH  =      F    aspherical Exc in radial PAW
 Electronic Relaxation 1
   ENCUT  =  450.0 eV  33.07 Ry    5.75 a.u.   6.92  6.92  6.92*2*pi/ulx,y,z
   ENINI  =  450.0     initial cutoff
   ENAUG  =  531.4 eV  augmentation charge cutoff
   NELM   =     60;   NELMIN=  2; NELMDL=  0     # of ELM steps 
   EDIFF  = 0.1E-05   stopping-criterion for ELM
   LREAL  =      F    real-space projection
   NLSPLINE    = F    spline interpolate recip. space projectors
   LCOMPAT=      F    compatible to vasp.4.4
   GGA_COMPAT  = T    GGA compatible to vasp.4.4-vasp.4.6
   LMAXPAW     = -100 max onsite density
   LMAXMIX     =    2 max onsite mixed and CHGCAR
   VOSKOWN=      0    Vosko Wilk Nusair interpolation
   ROPT   =    0.00000
 Ionic relaxation
   EDIFFG = 0.1E-04   stopping-criterion for IOM
   NSW    =      0    number of steps for IOM
   NBLOCK =      1;   KBLOCK =      1    inner block; outer block 
   IBRION =     -1    ionic relax: 0-MD 1-quasi-New 2-CG
   NFREE  =      0    steps in history (QN), initial steepest desc. (CG)
   ISIF   =      2    stress and relaxation
   IWAVPR =     10    prediction:  0-non 1-charg 2-wave 3-comb
   ISYM   =      2    0-nonsym 1-usesym 2-fastsym
   LCORR  =      T    Harris-Foulkes like correction to forces

   POTIM  = 0.5000    time-step for ionic-motion
   TEIN   =    0.0    initial temperature
   TEBEG  =    0.0;   TEEND  =   0.0 temperature during run
   SMASS  =  -3.00    Nose mass-parameter (am)
   estimated Nose-frequenzy (Omega)   =  0.10E-29 period in steps = 0.13E+47 mass=  -0.366E-27a.u.
   SCALEE = 1.0000    scale energy and forces
   NPACO  =    256;   APACO  = 10.0  distance and # of slots for P.C.
   PSTRESS=    0.0 pullay stress

  Mass of Ions in am
   POMASS =  72.61
  Ionic Valenz
   ZVAL   =  14.00
  Atomic Wigner-Seitz radii
   RWIGS  =  -1.00
  virtual crystal weights 
   VCA    =   1.00
   NELECT =      28.0000    total number of electrons
   NUPDOWN=      -1.0000    fix difference up-down

 DOS related values:
   EMIN   =  10.00;   EMAX   =-10.00  energy-range for DOS
   EFERMI =   0.00
   ISMEAR =     0;   SIGMA  =   0.05  broadening in eV -4-tet -1-fermi 0-gaus

 Electronic relaxation 2 (details)
   IALGO  =     38    algorithm
   LDIAG  =      T    sub-space diagonalisation (order eigenvalues)
   LSUBROT=      F    optimize rotation matrix (better conditioning)
   TURBO    =      0    0=normal 1=particle mesh
   IRESTART =      0    0=no restart 2=restart with 2 vectors
   NREBOOT  =      0    no. of reboots
   NMIN     =      0    reboot dimension
   EREF     =   0.00    reference energy to select bands
   IMIX   =      4    mixing-type and parameters
     AMIX     =   0.40;   BMIX     =  1.00
     AMIX_MAG =   1.60;   BMIX_MAG =  1.00
     AMIN     =   0.10
     WC   =   100.;   INIMIX=   1;  MIXPRE=   1;  MAXMIX= -45

 Intra band minimization:
   WEIMIN = 0.0000     energy-eigenvalue tresh-hold
   EBREAK =  0.14E-07  absolut break condition
   DEPER  =   0.30     relativ break condition  

   TIME   =   0.40     timestep for ELM

  volume/ion in A,a.u.               =      22.64       152.75
  Fermi-wavevector in a.u.,A,eV,Ry     =   1.394825  2.635838 26.470653  1.945538
  Thomas-Fermi vector in A             =   2.518337

 Write flags
   LWAVE        =      T    write WAVECAR
   LDOWNSAMPLE  =      F    k-point downsampling of WAVECAR
   LCHARG       =      T    write CHGCAR
   LVTOT        =      F    write LOCPOT, total local potential
   LVHAR        =      F    write LOCPOT, Hartree potential only
   LELF         =      F    write electronic localiz. function (ELF)
   LORBIT       =      0    0 simple, 1 ext, 2 COOP (PROOUT), +10 PAW based schemes


 Dipole corrections
   LMONO  =      F    monopole corrections only (constant potential shift)
   LDIPOL =      F    correct potential (dipole corrections)
   IDIPOL =      0    1-x, 2-y, 3-z, 4-all directions 
   EPSILON=  1.0000000 bulk dielectric constant

 Exchange correlation treatment:
   GGA     =    --    GGA type
   LEXCH   =     8    internal setting for exchange type
   LIBXC   =     F    Libxc                    
   VOSKOWN =     0    Vosko Wilk Nusair interpolation
   LHFCALC =     F    Hartree Fock is set to
   LHFONE  =     F    Hartree Fock one center treatment
   AEXX    =    0.0000 exact exchange contribution

 Linear response parameters
   LEPSILON=     F    determine dielectric tensor
   LRPA    =     F    only Hartree local field effects (RPA)
   LNABLA  =     F    use nabla operator in PAW spheres
   LVEL    =     F    velocity operator in full k-point grid
   CSHIFT  =0.1000    complex shift for real part using Kramers Kronig
   OMEGAMAX=  -1.0    maximum frequency
   DEG_THRESHOLD= 0.2000000E-02 threshold for treating states as degnerate
   RTIME   =   -0.100 relaxation time in fs
  (WPLASMAI=    0.000 imaginary part of plasma frequency in eV, 0.658/RTIME)
   DFIELD  = 0.0000000 0.0000000 0.0000000 field for delta impulse in time

  Optional k-point grid parameters
   LKPOINTS_OPT  =     F    use optional k-point grid
   KPOINTS_OPT_MODE=     1    mode for optional k-point grid

 Orbital magnetization related:
   ORBITALMAG=     F  switch on orbital magnetization
   LCHIMAG   =     F  perturbation theory with respect to B field
   DQ        =  0.001000  dq finite difference perturbation B field
   LLRAUG    =     F  two centre corrections for induced B field



--------------------------------------------------------------------------------------------------------


 Static calculation
 charge density and potential will be updated during run
 non-spin polarized calculation
 Variant of blocked Davidson
 Davidson routine will perform the subspace rotation
 perform sub-space diagonalisation
    after iterative eigenvector-optimisation
 modified Broyden-mixing scheme, WC =      100.0
 initial mixing is a Kerker type mixing with AMIX =  0.4000 and BMIX =      1.0000
 Hartree-type preconditioning will be used
 using additional bands            4
 reciprocal scheme for non local part
 use partial core corrections
 calculate Harris-corrections to forces   (improved forces if not selfconsistent)
 use gradient corrections 
 use of overlap-Matrix (Vanderbilt PP)
 Gauss-broadening in eV      SIGMA  =   0.05


--------------------------------------------------------------------------------------------------------


  energy-cutoff  :      450.00
  volume of cell :       45.27
      direct lattice vectors                 reciprocal lattice vectors
     0.000000000  2.828770000  2.828770000    -0.176755268  0.176755268  0.176755268
     2.828770000  0.000000000  2.828770000     0.176755268 -0.176755268  0.176755268
     2.828770000  2.828770000  0.000000000     0.176755268  0.176755268 -0.176755268

  length of vectors
     4.000484899  4.000484899  4.000484899     0.306149105  0.306149105  0.306149105



 k-points in units of 2pi/SCALE and weight: K-Spacing Value to Generate K-Mesh: 0.03
   0.00000000  0.00000000  0.00000000       0.001
  -0.09090909  0.09090909  0.09090909       0.006
  -0.18181818  0.18181818  0.18181818       0.006
  -0.27272727  0.27272727  0.27272727       0.006
  -0.36363636  0.36363636  0.36363636       0.006
  -0.45454545  0.45454545  0.45454545       0.006
   0.00000000  0.00000000  0.18181818       0.005
  -0.09090909  0.09090909  0.27272727       0.018
  -0.18181818  0.18181818  0.36363636       0.018
  -0.27272727  0.27272727  0.45454545       0.018
  -0.36363636  0.36363636  0.54545455       0.018
   0.54545455 -0.54545455 -0.36363636       0.018
   0.45454545 -0.45454545 -0.27272727       0.018
   0.36363636 -0.36363636 -0.18181818       0.018
   0.27272727 -0.27272727 -0.09090909       0.018
   0.18181818 -0.18181818  0.00000000       0.009
   0.00000000  0.00000000  0.36363636       0.005
  -0.09090909  0.09090909  0.45454545       0.018
  -0.18181818  0.18181818  0.54545455       0.018
  -0.27272727  0.27272727  0.63636364       0.018
   0.63636364 -0.63636364 -0.27272727       0.018
   0.54545455 -0.54545455 -0.18181818       0.018
   0.45454545 -0.45454545 -0.09090909       0.018
   0.36363636 -0.36363636  0.00000000       0.009
   0.00000000  0.00000000  0.54545455       0.005
  -0.09090909  0.09090909  0.63636364       0.018
  -0.18181818  0.18181818  0.72727273       0.018
   0.72727273 -0.72727273 -0.18181818       0.018
   0.63636364 -0.63636364 -0.09090909       0.018
   0.54545455 -0.54545455  0.00000000       0.009
   0.00000000  0.00000000  0.72727273       0.005
  -0.09090909  0.09090909  0.81818182       0.018
   0.81818182 -0.81818182 -0.09090909       0.018
   0.72727273 -0.72727273  0.00000000       0.009
   0.00000000  0.00000000  0.90909091       0.005
   0.90909091 -0.90909091  0.00000000       0.009
   0.00000000  0.18181818  0.36363636       0.018
  -0.09090909  0.27272727  0.45454545       0.036
  -0.18181818  0.36363636  0.54545455       0.036
   0.72727273 -0.54545455 -0.36363636       0.036
   0.00000000  0.18181818  0.54545455       0.018
  -0.09090909  0.27272727  0.63636364       0.036
   0.81818182 -0.63636364 -0.27272727       0.036
   0.72727273 -0.54545455 -0.18181818       0.036
   0.63636364 -0.45454545 -0.09090909       0.036
   0.54545455 -0.36363636  0.00000000       0.018
   0.00000000  0.18181818  0.72727273       0.018
   0.90909091 -0.72727273 -0.18181818       0.036
   0.81818182 -0.63636364 -0.09090909       0.036
   0.72727273 -0.54545455  0.00000000       0.018
   1.00000000 -0.81818182 -0.09090909       0.018
   0.90909091 -0.72727273 -0.00000000       0.018
   1.00000000 -0.63636364 -0.27272727       0.018
   0.90909091 -0.54545455 -0.18181818       0.036
   1.00000000 -0.63636364 -0.09090909       0.018
   0.90909091 -0.54545455  0.00000000       0.018

 k-points in reciprocal lattice and weights: K-Spacing Value to Generate K-Mesh: 0.03
   0.00000000  0.00000000  0.00000000       0.001
   0.09090909  0.00000000  0.00000000       0.006
   0.18181818  0.00000000  0.00000000       0.006
   0.27272727  0.00000000  0.00000000       0.006
   0.36363636  0.00000000  0.00000000       0.006
   0.45454545  0.00000000  0.00000000       0.006
   0.09090909  0.09090909  0.00000000       0.005
   0.18181818  0.09090909  0.00000000       0.018
   0.27272727  0.09090909  0.00000000       0.018
   0.36363636  0.09090909  0.00000000       0.018
   0.45454545  0.09090909  0.00000000       0.018
  -0.45454545  0.09090909  0.00000000       0.018
  -0.36363636  0.09090909  0.00000000       0.018
  -0.27272727  0.09090909  0.00000000       0.018
  -0.18181818  0.09090909  0.00000000       0.018
  -0.09090909  0.09090909  0.00000000       0.009
   0.18181818  0.18181818  0.00000000       0.005
   0.27272727  0.18181818  0.00000000       0.018
   0.36363636  0.18181818  0.00000000       0.018
   0.45454545  0.18181818  0.00000000       0.018
  -0.45454545  0.18181818  0.00000000       0.018
  -0.36363636  0.18181818  0.00000000       0.018
  -0.27272727  0.18181818  0.00000000       0.018
  -0.18181818  0.18181818  0.00000000       0.009
   0.27272727  0.27272727  0.00000000       0.005
   0.36363636  0.27272727  0.00000000       0.018
   0.45454545  0.27272727  0.00000000       0.018
  -0.45454545  0.27272727  0.00000000       0.018
  -0.36363636  0.27272727  0.00000000       0.018
  -0.27272727  0.27272727  0.00000000       0.009
   0.36363636  0.36363636  0.00000000       0.005
   0.45454545  0.36363636  0.00000000       0.018
  -0.45454545  0.36363636  0.00000000       0.018
  -0.36363636  0.36363636  0.00000000       0.009
   0.45454545  0.45454545  0.00000000       0.005
  -0.45454545  0.45454545  0.00000000       0.009
   0.27272727  0.18181818  0.09090909       0.018
   0.36363636  0.18181818  0.09090909       0.036
   0.45454545  0.18181818  0.09090909       0.036
  -0.45454545  0.18181818  0.09090909       0.036
   0.36363636  0.27272727  0.09090909       0.018
   0.45454545  0.27272727  0.09090909       0.036
  -0.45454545  0.27272727  0.09090909       0.036
  -0.36363636  0.27272727  0.09090909       0.036
  -0.27272727  0.27272727  0.09090909       0.036
  -0.18181818  0.27272727  0.09090909       0.018
   0.45454545  0.36363636  0.09090909       0.018
  -0.45454545  0.36363636  0.09090909       0.036
  -0.36363636  0.36363636  0.09090909       0.036
  -0.27272727  0.36363636  0.09090909       0.018
  -0.45454545  0.45454545  0.09090909       0.018
  -0.36363636  0.45454545  0.09090909       0.018
  -0.45454545  0.36363636  0.18181818       0.018
  -0.36363636  0.36363636  0.18181818       0.036
  -0.36363636  0.45454545  0.18181818       0.018
  -0.27272727  0.45454545  0.18181818       0.018

 position of ions in fractional coordinates (direct lattice) 
   0.87500000  0.87500000  0.87500000
   0.12500000  0.12500000  0.12500000

 position of ions in cartesian coordinates  (Angst):
   4.95034750  4.95034750  4.95034750
   0.70719250  0.70719250  0.70719250



--------------------------------------------------------------------------------------------------------


 k-point   1 :   0.0000 0.0000 0.0000  plane waves:     941
 k-point   2 :   0.0909 0.0000 0.0000  plane waves:     950
 k-point   3 :   0.1818 0.0000 0.0000  plane waves:     962
 k-point   4 :   0.2727 0.0000 0.0000  plane waves:     974
 k-point   5 :   0.3636 0.0000 0.0000  plane waves:     984
 k-point   6 :   0.4545 0.0000 0.0000  plane waves:     969
 k-point   7 :   0.0909 0.0909 0.0000  plane waves:     953
 k-point   8 :   0.1818 0.0909 0.0000  plane waves:     967
 k-point   9 :   0.2727 0.0909 0.0000  plane waves:     967
 k-point  10 :   0.3636 0.0909 0.0000  plane waves:     980
 k-point  11 :   0.4545 0.0909 0.0000  plane waves:     983
 k-point  12 :  -0.4545 0.0909 0.0000  plane waves:     986
 k-point  13 :  -0.3636 0.0909 0.0000  plane waves:     981
 k-point  14 :  -0.2727 0.0909 0.0000  plane waves:     969
 k-point  15 :  -0.1818 0.0909 0.0000  plane waves:     970
 k-point  16 :  -0.0909 0.0909 0.0000  plane waves:     965
 k-point  17 :   0.1818 0.1818 0.0000  plane waves:     974
 k-point  18 :   0.2727 0.1818 0.0000  plane waves:     982
 k-point  19 :   0.3636 0.1818 0.0000  plane waves:     985
 k-point  20 :   0.4545 0.1818 0.0000  plane waves:     985
 k-point  21 :  -0.4545 0.1818 0.0000  plane waves:     984
 k-point  22 :  -0.3636 0.1818 0.0000  plane waves:     981
 k-point  23 :  -0.2727 0.1818 0.0000  plane waves:     985
 k-point  24 :  -0.1818 0.1818 0.0000  plane waves:     977
 k-point  25 :   0.2727 0.2727 0.0000  plane waves:     990
 k-point  26 :   0.3636 0.2727 0.0000  plane waves:     998
 k-point  27 :   0.4545 0.2727 0.0000  plane waves:     985
 k-point  28 :  -0.4545 0.2727 0.0000  plane waves:     983
 k-point  29 :  -0.3636 0.2727 0.0000  plane waves:     979
 k-point  30 :  -0.2727 0.2727 0.0000  plane waves:     981
 k-point  31 :   0.3636 0.3636 0.0000  plane waves:     982
 k-point  32 :   0.4545 0.3636 0.0000  plane waves:     988
 k-point  33 :  -0.4545 0.3636 0.0000  plane waves:     975
 k-point  34 :  -0.3636 0.3636 0.0000  plane waves:     985
 k-point  35 :   0.4545 0.4545 0.0000  plane waves:     986
 k-point  36 :  -0.4545 0.4545 0.0000  plane waves:     977
 k-point  37 :   0.2727 0.1818 0.0909  plane waves:     964
 k-point  38 :   0.3636 0.1818 0.0909  plane waves:     972
 k-point  39 :   0.4545 0.1818 0.0909  plane waves:     983
 k-point  40 :  -0.4545 0.1818 0.0909  plane waves:     978
 k-point  41 :   0.3636 0.2727 0.0909  plane waves:     987
 k-point  42 :   0.4545 0.2727 0.0909  plane waves:     988
 k-point  43 :  -0.4545 0.2727 0.0909  plane waves:     987
 k-point  44 :  -0.3636 0.2727 0.0909  plane waves:     980
 k-point  45 :  -0.2727 0.2727 0.0909  plane waves:     977
 k-point  46 :  -0.1818 0.2727 0.0909  plane waves:     984
 k-point  47 :   0.4545 0.3636 0.0909  plane waves:     990
 k-point  48 :  -0.4545 0.3636 0.0909  plane waves:     987
 k-point  49 :  -0.3636 0.3636 0.0909  plane waves:     986
 k-point  50 :  -0.2727 0.3636 0.0909  plane waves:     984
 k-point  51 :  -0.4545 0.4545 0.0909  plane waves:     987
 k-point  52 :  -0.3636 0.4545 0.0909  plane waves:     986
 k-point  53 :  -0.4545 0.3636 0.1818  plane waves:     983
 k-point  54 :  -0.3636 0.3636 0.1818  plane waves:     985
 k-point  55 :  -0.3636 0.4545 0.1818  plane waves:     984
 k-point  56 :  -0.2727 0.4545 0.1818  plane waves:     984

 maximum and minimum number of plane-waves per node :       998      941

 maximum number of plane-waves:       998
 maximum index in each direction: 
   IXMAX=    7   IYMAX=    6   IZMAX=    6
   IXMIN=   -7   IYMIN=   -7   IZMIN=   -7


 serial   3D FFT for wavefunctions
 parallel 3D FFT for charge:
    minimum data exchange during FFTs selected (reduces bandwidth)


 total amount of memory used by VASP MPI-rank0    64780. kBytes
=======================================================================

   base      :      30000. kBytes
   nonl-proj :       8079. kBytes
   fftplans  :      13127. kBytes
   grid      :       5205. kBytes
   one-center:         31. kBytes
   wavefun   :       8338. kBytes

     INWAV:  cpu time      0.0001: real time      0.0001
 Broyden mixing: mesh for mixing (old mesh)
   NGX = 13   NGY = 13   NGZ = 13
  (NGX  = 56   NGY  = 56   NGZ  = 56)
  gives a total of   2197 points

 initial charge density was supplied:
 charge density of overlapping atoms calculated
 number of electron      28.0000000 magnetization 
 keeping initial charge density in first step


--------------------------------------------------------------------------------------------------------


 Maximum index for augmentation-charges        63191 (set IRDMAX)


--------------------------------------------------------------------------------------------------------


 First call to EWALD:  gamma=   0.497
 Maximum number of real-space cells 3x 3x 3
 Maximum number of reciprocal cells 3x 3x 3

    FEWALD:  cpu time      0.0008: real time      0.0008


--------------------------------------- Iteration      1(   1)  ---------------------------------------


    POTLOK:  cpu time      0.0514: real time      0.0519
    SETDIJ:  cpu time      0.0699: real time      0.0699
     EDDAV:  cpu time      1.3165: real time      1.3242
       DOS:  cpu time      0.0052: real time      0.0057
    --------------------------------------------
      LOOP:  cpu time      1.4431: real time      1.4518

 eigenvalue-minimisations  :  2072
 total energy-change (2. order) : 0.1521304E+03  (-0.1450343E+04)
 number of electron      28.0000000 magnetization 
 augmentation part       28.0000000 magnetization 

 Free energy of the ion-electron system (eV)
  ---------------------------------------------------
  alpha Z        PSCENC =       129.43330490
  Ewald energy   TEWEN  =     -2687.29417191
  -Hartree energ DENC   =     -1514.49283412
  -exchange      EXHF   =         0.00000000
  -V(xc)+E(xc)   XCENC  =       146.10984955
  PAW double counting   =      3673.23166740    -4543.15754504
  entropy T*S    EENTRO =        -0.00065039
  eigenvalues    EBANDS =      -244.16426263
  atomic energy  EATOM  =      5192.46507749
  Solvation  Ediel_sol  =         0.00000000
  ---------------------------------------------------
  free energy    TOTEN  =       152.13043524 eV

  energy without entropy =      152.13108564  energy(sigma->0) =      152.13076044


--------------------------------------------------------------------------------------------------------




--------------------------------------- Iteration      1(   2)  ---------------------------------------


     EDDAV:  cpu time      1.5503: real time      1.5506
       DOS:  cpu time      0.0014: real time      0.0014
    --------------------------------------------
      LOOP:  cpu time      1.5516: real time      1.5519

 eigenvalue-minimisations  :  2026
 total energy-change (2. order) :-0.1423023E+03  (-0.1402062E+03)
 number of electron      28.0000000 magnetization 
 augmentation part       28.0000000 magnetization 

 Free energy of the ion-electron system (eV)
  ---------------------------------------------------
  alpha Z        PSCENC =       129.43330490
  Ewald energy   TEWEN  =     -2687.29417191
  -Hartree energ DENC   =     -1514.49283412
  -exchange      EXHF   =         0.00000000
  -V(xc)+E(xc)   XCENC  =       146.10984955
  PAW double counting   =      3673.23166740    -4543.15754504
  entropy T*S    EENTRO =        -0.00063734
  eigenvalues    EBANDS =      -386.46660366
  atomic energy  EATOM  =      5192.46507749
  Solvation  Ediel_sol  =         0.00000000
  ---------------------------------------------------
  free energy    TOTEN  =         9.82810726 eV

  energy without entropy =        9.82874460  energy(sigma->0) =        9.82842593


--------------------------------------------------------------------------------------------------------




--------------------------------------- Iteration      1(   3)  ---------------------------------------


     EDDAV:  cpu time      1.4059: real time      1.4061
       DOS:  cpu time      0.0006: real time      0.0006
    --------------------------------------------
      LOOP:  cpu time      1.4065: real time      1.4066

 eigenvalue-minimisations  :  2170
 total energy-change (2. order) :-0.1834897E+02  (-0.1821595E+02)
 number of electron      28.0000000 magnetization 
 augmentation part       28.0000000 magnetization 

 Free energy of the ion-electron system (eV)
  ---------------------------------------------------
  alpha Z        PSCENC =       129.43330490
  Ewald energy   TEWEN  =     -2687.29417191
  -Hartree energ DENC   =     -1514.49283412
  -exchange      EXHF   =         0.00000000
  -V(xc)+E(xc)   XCENC  =       146.10984955
  PAW double counting   =      3673.23166740    -4543.15754504
  entropy T*S    EENTRO =        -0.00000016
  eigenvalues    EBANDS =      -404.81621280
  atomic energy  EATOM  =      5192.46507749
  Solvation  Ediel_sol  =         0.00000000
  ---------------------------------------------------
  free energy    TOTEN  =        -8.52086470 eV

  energy without entropy =       -8.52086454  energy(sigma->0) =       -8.52086462


--------------------------------------------------------------------------------------------------------




--------------------------------------- Iteration      1(   4)  ---------------------------------------


     EDDAV:  cpu time      1.6397: real time      1.6399
       DOS:  cpu time      0.0009: real time      0.0009
    --------------------------------------------
      LOOP:  cpu time      1.6406: real time      1.6408

 eigenvalue-minimisations  :  2386
 total energy-change (2. order) :-0.5641348E+00  (-0.5630902E+00)
 number of electron      28.0000000 magnetization 
 augmentation part       28.0000000 magnetization 

 Free energy of the ion-electron system (eV)
  ---------------------------------------------------
  alpha Z        PSCENC =       129.43330490
  Ewald energy   TEWEN  =     -2687.29417191
  -Hartree energ DENC   =     -1514.49283412
  -exchange      EXHF   =         0.00000000
  -V(xc)+E(xc)   XCENC  =       146.10984955
  PAW double counting   =      3673.23166740    -4543.15754504
  entropy T*S    EENTRO =        -0.00004475
  eigenvalues    EBANDS =      -405.38030302
  atomic energy  EATOM  =      5192.46507749
  Solvation  Ediel_sol  =         0.00000000
  ---------------------------------------------------
  free energy    TOTEN  =        -9.08499951 eV

  energy without entropy =       -9.08495476  energy(sigma->0) =       -9.08497714


--------------------------------------------------------------------------------------------------------




--------------------------------------- Iteration      1(   5)  ---------------------------------------


     EDDAV:  cpu time      1.5751: real time      1.5751
       DOS:  cpu time      0.0010: real time      0.0010
    CHARGE:  cpu time      0.2462: real time      0.2462
    MIXING:  cpu time      0.0010: real time      0.0010
    --------------------------------------------
      LOOP:  cpu time      1.8233: real time      1.8234

 eigenvalue-minimisations  :  2214
 total energy-change (2. order) :-0.9099009E-02  (-0.9087516E-02)
 number of electron      28.0000001 magnetization 
 augmentation part       16.8288869 magnetization 

 Broyden mixing:
  rms(total) = 0.31975E+00    rms(broyden)= 0.31970E+00
  rms(prec ) = 0.69847E+00
  weight for this iteration     100.00

 Free energy of the ion-electron system (eV)
  ---------------------------------------------------
  alpha Z        PSCENC =       129.43330490
  Ewald energy   TEWEN  =     -2687.29417191
  -Hartree energ DENC   =     -1514.49283412
  -exchange      EXHF   =         0.00000000
  -V(xc)+E(xc)   XCENC  =       146.10984955
  PAW double counting   =      3673.23166740    -4543.15754504
  entropy T*S    EENTRO =        -0.00006244
  eigenvalues    EBANDS =      -405.38938434
  atomic energy  EATOM  =      5192.46507749
  Solvation  Ediel_sol  =         0.00000000
  ---------------------------------------------------
  free energy    TOTEN  =        -9.09409852 eV

  energy without entropy =       -9.09403608  energy(sigma->0) =       -9.09406730


--------------------------------------------------------------------------------------------------------




--------------------------------------- Iteration      1(   6)  ---------------------------------------


    POTLOK:  cpu time      0.0571: real time      0.0571
    SETDIJ:  cpu time      0.0882: real time      0.0882
     EDDAV:  cpu time      1.5985: real time      1.5992
       DOS:  cpu time      0.0011: real time      0.0011
    CHARGE:  cpu time      0.1888: real time      0.1888
    MIXING:  cpu time      0.0016: real time      0.0026
    --------------------------------------------
      LOOP:  cpu time      1.9354: real time      1.9371

 eigenvalue-minimisations  :  2168
 total energy-change (2. order) : 0.5753369E-01  (-0.2317428E-02)
 number of electron      28.0000001 magnetization 
 augmentation part       16.8383553 magnetization 

 Broyden mixing:
  rms(total) = 0.19090E+00    rms(broyden)= 0.19090E+00
  rms(prec ) = 0.42465E+00
  weight for this iteration     100.00

 eigenvalues of (default mixing * dielectric matrix)
  average eigenvalue GAMMA=   2.4632
  2.4632

 Free energy of the ion-electron system (eV)
  ---------------------------------------------------
  alpha Z        PSCENC =       129.43330490
  Ewald energy   TEWEN  =     -2687.29417191
  -Hartree energ DENC   =     -1514.19606130
  -exchange      EXHF   =         0.00000000
  -V(xc)+E(xc)   XCENC  =       145.95754243
  PAW double counting   =      4006.24830545    -4878.17881661
  entropy T*S    EENTRO =        -0.00006187
  eigenvalues    EBANDS =      -403.47168340
  atomic energy  EATOM  =      5192.46507749
  Solvation  Ediel_sol  =         0.00000000
  ---------------------------------------------------
  free energy    TOTEN  =        -9.03656483 eV

  energy without entropy =       -9.03650296  energy(sigma->0) =       -9.03653390


--------------------------------------------------------------------------------------------------------




--------------------------------------- Iteration      1(   7)  ---------------------------------------


    POTLOK:  cpu time      0.0487: real time      0.0487
    SETDIJ:  cpu time      0.0861: real time      0.0861
     EDDAV:  cpu time      1.5705: real time      1.5707
       DOS:  cpu time      0.0008: real time      0.0008
    CHARGE:  cpu time      0.1890: real time      0.1891
    MIXING:  cpu time      0.0015: real time      0.0015
    --------------------------------------------
      LOOP:  cpu time      1.8966: real time      1.8970

 eigenvalue-minimisations  :  2112
 total energy-change (2. order) : 0.3128023E-01  (-0.5662857E-02)
 number of electron      28.0000001 magnetization 
 augmentation part       16.8522610 magnetization 

 Broyden mixing:
  rms(total) = 0.15247E-01    rms(broyden)= 0.15244E-01
  rms(prec ) = 0.30097E-01
  weight for this iteration     100.00

 eigenvalues of (default mixing * dielectric matrix)
  average eigenvalue GAMMA=   2.4798
  2.4798  2.4798

 Free energy of the ion-electron system (eV)
  ---------------------------------------------------
  alpha Z        PSCENC =       129.43330490
  Ewald energy   TEWEN  =     -2687.29417191
  -Hartree energ DENC   =     -1514.33866258
  -exchange      EXHF   =         0.00000000
  -V(xc)+E(xc)   XCENC  =       145.77691533
  PAW double counting   =      4549.87387068    -5425.22188828
  entropy T*S    EENTRO =        -0.00006331
  eigenvalues    EBANDS =      -399.69966693
  atomic energy  EATOM  =      5192.46507749
  Solvation  Ediel_sol  =         0.00000000
  ---------------------------------------------------
  free energy    TOTEN  =        -9.00528460 eV

  energy without entropy =       -9.00522130  energy(sigma->0) =       -9.00525295


--------------------------------------------------------------------------------------------------------




--------------------------------------- Iteration      1(   8)  ---------------------------------------


    POTLOK:  cpu time      0.0461: real time      0.0461
    SETDIJ:  cpu time      0.0736: real time      0.0736
     EDDAV:  cpu time      1.5445: real time      1.5446
       DOS:  cpu time      0.0007: real time      0.0007
    CHARGE:  cpu time      0.1675: real time      0.1675
    MIXING:  cpu time      0.0010: real time      0.0014
    --------------------------------------------
      LOOP:  cpu time      1.8334: real time      1.8338

 eigenvalue-minimisations  :  2310
 total energy-change (2. order) :-0.1782296E-02  (-0.6456890E-03)
 number of electron      28.0000001 magnetization 
 augmentation part       16.8499187 magnetization 

 Broyden mixing:
  rms(total) = 0.47375E-02    rms(broyden)= 0.47370E-02
  rms(prec ) = 0.10775E-01
  weight for this iteration     100.00

 eigenvalues of (default mixing * dielectric matrix)
  average eigenvalue GAMMA=   2.1235
  1.4234  2.8899  2.0572

 Free energy of the ion-electron system (eV)
  ---------------------------------------------------
  alpha Z        PSCENC =       129.43330490
  Ewald energy   TEWEN  =     -2687.29417191
  -Hartree energ DENC   =     -1514.93575386
  -exchange      EXHF   =         0.00000000
  -V(xc)+E(xc)   XCENC  =       145.80421971
  PAW double counting   =      4512.35686692    -5388.16349518
  entropy T*S    EENTRO =        -0.00006011
  eigenvalues    EBANDS =      -398.67305486
  atomic energy  EATOM  =      5192.46507749
  Solvation  Ediel_sol  =         0.00000000
  ---------------------------------------------------
  free energy    TOTEN  =        -9.00706690 eV

  energy without entropy =       -9.00700679  energy(sigma->0) =       -9.00703684


--------------------------------------------------------------------------------------------------------




--------------------------------------- Iteration      1(   9)  ---------------------------------------


    POTLOK:  cpu time      0.0558: real time      0.0558
    SETDIJ:  cpu time      0.0856: real time      0.0856
     EDDAV:  cpu time      1.5773: real time      1.5774
       DOS:  cpu time      0.0007: real time      0.0007
    CHARGE:  cpu time      0.1755: real time      0.1755
    MIXING:  cpu time      0.0009: real time      0.0009
    --------------------------------------------
      LOOP:  cpu time      1.8958: real time      1.8959

 eigenvalue-minimisations  :  2594
 total energy-change (2. order) :-0.2913658E-04  (-0.2461508E-04)
 number of electron      28.0000001 magnetization 
 augmentation part       16.8509738 magnetization 

 Broyden mixing:
  rms(total) = 0.17487E-02    rms(broyden)= 0.17476E-02
  rms(prec ) = 0.41491E-02
  weight for this iteration     100.00

 eigenvalues of (default mixing * dielectric matrix)
  average eigenvalue GAMMA=   2.0603
  3.1325  2.3477  1.8843  0.8767

 Free energy of the ion-electron system (eV)
  ---------------------------------------------------
  alpha Z        PSCENC =       129.43330490
  Ewald energy   TEWEN  =     -2687.29417191
  -Hartree energ DENC   =     -1514.82833120
  -exchange      EXHF   =         0.00000000
  -V(xc)+E(xc)   XCENC  =       145.79595610
  PAW double counting   =      4522.68865239    -5398.32489365
  entropy T*S    EENTRO =        -0.00006057
  eigenvalues    EBANDS =      -398.94262959
  atomic energy  EATOM  =      5192.46507749
  Solvation  Ediel_sol  =         0.00000000
  ---------------------------------------------------
  free energy    TOTEN  =        -9.00709604 eV

  energy without entropy =       -9.00703546  energy(sigma->0) =       -9.00706575


--------------------------------------------------------------------------------------------------------




--------------------------------------- Iteration      1(  10)  ---------------------------------------


    POTLOK:  cpu time      0.0476: real time      0.0476
    SETDIJ:  cpu time      0.0632: real time      0.0632
     EDDAV:  cpu time      1.3829: real time      1.3830
       DOS:  cpu time      0.0007: real time      0.0007
    CHARGE:  cpu time      0.1763: real time      0.1763
    MIXING:  cpu time      0.0011: real time      0.0011
    --------------------------------------------
      LOOP:  cpu time      1.6718: real time      1.6720

 eigenvalue-minimisations  :  2184
 total energy-change (2. order) :-0.2394614E-04  (-0.6622165E-05)
 number of electron      28.0000001 magnetization 
 augmentation part       16.8513853 magnetization 

 Broyden mixing:
  rms(total) = 0.61455E-03    rms(broyden)= 0.61155E-03
  rms(prec ) = 0.15932E-02
  weight for this iteration     100.00

 eigenvalues of (default mixing * dielectric matrix)
  average eigenvalue GAMMA=   2.0354
  3.1616  2.3084  2.3084  1.0479  1.3508

 Free energy of the ion-electron system (eV)
  ---------------------------------------------------
  alpha Z        PSCENC =       129.43330490
  Ewald energy   TEWEN  =     -2687.29417191
  -Hartree energ DENC   =     -1514.82607326
  -exchange      EXHF   =         0.00000000
  -V(xc)+E(xc)   XCENC  =       145.79528636
  PAW double counting   =      4520.81370940    -5396.33810924
  entropy T*S    EENTRO =        -0.00006052
  eigenvalues    EBANDS =      -399.05608321
  atomic energy  EATOM  =      5192.46507749
  Solvation  Ediel_sol  =         0.00000000
  ---------------------------------------------------
  free energy    TOTEN  =        -9.00711998 eV

  energy without entropy =       -9.00705947  energy(sigma->0) =       -9.00708972


--------------------------------------------------------------------------------------------------------




--------------------------------------- Iteration      1(  11)  ---------------------------------------


    POTLOK:  cpu time      0.0411: real time      0.0411
    SETDIJ:  cpu time      0.0814: real time      0.0814
     EDDAV:  cpu time      1.6797: real time      1.6799
       DOS:  cpu time      0.0018: real time      0.0018
    CHARGE:  cpu time      0.1726: real time      0.1726
    MIXING:  cpu time      0.0013: real time      0.0013
    --------------------------------------------
      LOOP:  cpu time      1.9779: real time      1.9781

 eigenvalue-minimisations  :  2580
 total energy-change (2. order) :-0.1312964E-05  (-0.8988744E-06)
 number of electron      28.0000001 magnetization 
 augmentation part       16.8512246 magnetization 

 Broyden mixing:
  rms(total) = 0.14325E-03    rms(broyden)= 0.13014E-03
  rms(prec ) = 0.27811E-03
  weight for this iteration     100.00

 eigenvalues of (default mixing * dielectric matrix)
  average eigenvalue GAMMA=   1.9437
  3.2293  2.6041  2.4162  0.9795  1.2165  1.2165

 Free energy of the ion-electron system (eV)
  ---------------------------------------------------
  alpha Z        PSCENC =       129.43330490
  Ewald energy   TEWEN  =     -2687.29417191
  -Hartree energ DENC   =     -1514.88990642
  -exchange      EXHF   =         0.00000000
  -V(xc)+E(xc)   XCENC  =       145.79767601
  PAW double counting   =      4520.68620607    -5396.24191829
  entropy T*S    EENTRO =        -0.00006032
  eigenvalues    EBANDS =      -398.96332883
  atomic energy  EATOM  =      5192.46507749
  Solvation  Ediel_sol  =         0.00000000
  ---------------------------------------------------
  free energy    TOTEN  =        -9.00712130 eV

  energy without entropy =       -9.00706097  energy(sigma->0) =       -9.00709113


--------------------------------------------------------------------------------------------------------




--------------------------------------- Iteration      1(  12)  ---------------------------------------


    POTLOK:  cpu time      0.0503: real time      0.0503
    SETDIJ:  cpu time      0.0765: real time      0.0765
     EDDAV:  cpu time      1.0334: real time      1.0337
       DOS:  cpu time      0.0007: real time      0.0007
    --------------------------------------------
      LOOP:  cpu time      1.1609: real time      1.1611

 eigenvalue-minimisations  :  1282
 total energy-change (2. order) :-0.9873656E-07  (-0.3917686E-07)
 number of electron      28.0000001 magnetization 
 augmentation part       16.8512246 magnetization 

 Free energy of the ion-electron system (eV)
  ---------------------------------------------------
  alpha Z        PSCENC =       129.43330490
  Ewald energy   TEWEN  =     -2687.29417191
  -Hartree energ DENC   =     -1514.89204659
  -exchange      EXHF   =         0.00000000
  -V(xc)+E(xc)   XCENC  =       145.79769710
  PAW double counting   =      4520.65184542    -5396.19619504
  entropy T*S    EENTRO =        -0.00006032
  eigenvalues    EBANDS =      -398.97257244
  atomic energy  EATOM  =      5192.46507749
  Solvation  Ediel_sol  =         0.00000000
  ---------------------------------------------------
  free energy    TOTEN  =        -9.00712139 eV

  energy without entropy =       -9.00706107  energy(sigma->0) =       -9.00709123


--------------------------------------------------------------------------------------------------------




 average (electrostatic) potential at core
  the test charge radii are     0.9911
  (the norm of the test charge is              1.0000)
       1 -74.3454       2 -74.3454



 E-fermi :   5.0264     XC(G=0):  -9.9252     alpha+bet :-10.4170

 Fermi energy:         5.0263798265

 k-point     1 :       0.0000    0.0000    0.0000
  band No.  band energies     occupation 
      1     -19.8223      2.00000
      2     -19.8223      2.00000
      3     -19.8223      2.00000
      4     -19.7868      2.00000
      5     -19.7868      2.00000
      6     -19.5756      2.00000
      7     -19.5756      2.00000
      8     -19.5756      2.00000
      9     -19.5626      2.00000
     10     -19.5626      2.00000
     11      -7.7811      2.00000
     12       4.9915      1.67557
     13       4.9916      1.67536
     14       4.9916      1.67536
     15       5.0275      0.97369
     16       7.5466      0.00000
     17       7.5466      0.00000
     18       7.5466      0.00000

 k-point     2 :       0.0909    0.0000    0.0000
  band No.  band energies     occupation 
      1     -19.8274      2.00000
      2     -19.8274      2.00000
      3     -19.8210      2.00000
      4     -19.7800      2.00000
      5     -19.7800      2.00000
      6     -19.5835      2.00000
      7     -19.5835      2.00000
      8     -19.5772      2.00000
      9     -19.5558      2.00000
     10     -19.5558      2.00000
     11      -7.6801      2.00000
     12       3.3093      2.00000
     13       4.7966      2.00000
     14       4.7966      2.00000
     15       5.9931      0.00000
     16       7.8073      0.00000
     17       7.8073      0.00000
     18       8.0248      0.00000

 k-point     3 :       0.1818    0.0000    0.0000
  band No.  band energies     occupation 
      1     -19.8357      2.00000
      2     -19.8357      2.00000
      3     -19.8175      2.00000
      4     -19.7672      2.00000
      5     -19.7672      2.00000
      6     -19.5946      2.00000
      7     -19.5946      2.00000
      8     -19.5816      2.00000
      9     -19.5471      2.00000
     10     -19.5471      2.00000
     11      -7.3818      2.00000
     12       1.5341      2.00000
     13       4.4010      2.00000
     14       4.4011      2.00000
     15       5.9070      0.00000
     16       8.3235      0.00000
     17       8.3235      0.00000
     18       9.4150      0.00000

 k-point     4 :       0.2727    0.0000    0.0000
  band No.  band energies     occupation 
      1     -19.8421      2.00000
      2     -19.8421      2.00000
      3     -19.8126      2.00000
      4     -19.7557      2.00000
      5     -19.7557      2.00000
      6     -19.6034      2.00000
      7     -19.6034      2.00000
      8     -19.5873      2.00000
      9     -19.5407      2.00000
     10     -19.5407      2.00000
     11      -6.9047      2.00000
     12      -0.1199      2.00000
     13       4.0222      2.00000
     14       4.0222      2.00000
     15       5.5880      0.00000
     16       8.6912      0.00000
     17       8.6912      0.00000
     18      11.0414      0.00000

 k-point     5 :       0.3636    0.0000    0.0000
  band No.  band energies     occupation 
      1     -19.8456      2.00000
      2     -19.8456      2.00000
      3     -19.8082      2.00000
      4     -19.7483      2.00000
      5     -19.7483      2.00000
      6     -19.6085      2.00000
      7     -19.6085      2.00000
      8     -19.5927      2.00000
      9     -19.5370      2.00000
     10     -19.5370      2.00000
     11      -6.3064      2.00000
     12      -1.5275      2.00000
     13       3.7468      2.00000
     14       3.7468      2.00000
     15       5.3303      0.00000
     16       8.7777      0.00000
     17       8.7777      0.00000
     18      12.2375      0.00000

 k-point     6 :       0.4545    0.0000    0.0000
  band No.  band energies     occupation 
      1     -19.8469      2.00000
      2     -19.8469      2.00000
      3     -19.8051      2.00000
      4     -19.7451      2.00000
      5     -19.7451      2.00000
      6     -19.6103      2.00000
      7     -19.6103      2.00000
      8     -19.5959      2.00000
      9     -19.5353      2.00000
     10     -19.5353      2.00000
     11      -5.7820      2.00000
     12      -2.4630      2.00000
     13       3.6044      2.00000
     14       3.6044      2.00000
     15       5.1944      0.00000
     16       8.7486      0.00000
     17       8.7486      0.00000
     18      12.1510      0.00000

 k-point     7 :       0.0909    0.0909    0.0000
  band No.  band energies     occupation 
      1     -19.8278      2.00000
      2     -19.8255      2.00000
      3     -19.8255      2.00000
      4     -19.7821      2.00000
      5     -19.7729      2.00000
      6     -19.5977      2.00000
      7     -19.5709      2.00000
      8     -19.5709      2.00000
      9     -19.5670      2.00000
     10     -19.5509      2.00000
     11      -7.6462      2.00000
     12       3.2570      2.00000
     13       4.4523      2.00000
     14       4.4523      2.00000
     15       6.6962      0.00000
     16       7.1579      0.00000
     17       8.2566      0.00000
     18       8.2566      0.00000

 k-point     8 :       0.1818    0.0909    0.0000
  band No.  band energies     occupation 
      1     -19.8366      2.00000
      2     -19.8314      2.00000
      3     -19.8222      2.00000
      4     -19.7731      2.00000
      5     -19.7592      2.00000
      6     -19.6125      2.00000
      7     -19.5810      2.00000
      8     -19.5709      2.00000
      9     -19.5576      2.00000
     10     -19.5441      2.00000
     11      -7.4126      2.00000
     12       1.9203      2.00000
     13       4.0155      2.00000
     14       4.0740      2.00000
     15       6.8822      0.00000
     16       7.3298      0.00000
     17       8.8825      0.00000
     18       9.2339      0.00000

 k-point     9 :       0.2727    0.0909    0.0000
  band No.  band energies     occupation 
      1     -19.8456      2.00000
      2     -19.8382      2.00000
      3     -19.8148      2.00000
      4     -19.7613      2.00000
      5     -19.7461      2.00000
      6     -19.6236      2.00000
      7     -19.5924      2.00000
      8     -19.5778      2.00000
      9     -19.5482      2.00000
     10     -19.5363      2.00000
     11      -6.9919      2.00000
     12       0.3412      2.00000
     13       3.6104      2.00000
     14       3.6523      2.00000
     15       6.5839      0.00000
     16       7.9397      0.00000
     17       9.3220      0.00000
     18      10.2292      0.00000

 k-point    10 :       0.3636    0.0909    0.0000
  band No.  band energies     occupation 
      1     -19.8517      2.00000
      2     -19.8435      2.00000
      3     -19.8062      2.00000
      4     -19.7512      2.00000
      5     -19.7383      2.00000
      6     -19.6282      2.00000
      7     -19.6021      2.00000
      8     -19.5877      2.00000
      9     -19.5410      2.00000
     10     -19.5303      2.00000
     11      -6.4228      2.00000
     12      -1.1109      2.00000
     13       3.1805      2.00000
     14       3.4270      2.00000
     15       6.2832      0.00000
     16       8.3500      0.00000
     17       9.3881      0.00000
     18      11.1421      0.00000

 k-point    11 :       0.4545    0.0909    0.0000
  band No.  band energies     occupation 
      1     -19.8545      2.00000
      2     -19.8470      2.00000
      3     -19.7987      2.00000
      4     -19.7435      2.00000
      5     -19.7373      2.00000
      6     -19.6251      2.00000
      7     -19.6102      2.00000
      8     -19.5974      2.00000
      9     -19.5357      2.00000
     10     -19.5275      2.00000
     11      -5.8335      2.00000
     12      -2.2226      2.00000
     13       2.8655      2.00000
     14       3.3605      2.00000
     15       6.0815      0.00000
     16       8.4952      0.00000
     17       9.2336      0.00000
     18      12.1523      0.00000

 k-point    12 :      -0.4545    0.0909    0.0000
  band No.  band energies     occupation 
      1     -19.8545      2.00000
      2     -19.8494      2.00000
      3     -19.7954      2.00000
      4     -19.7414      2.00000
      5     -19.7384      2.00000
      6     -19.6170      2.00000
      7     -19.6160      2.00000
      8     -19.6039      2.00000
      9     -19.5323      2.00000
     10     -19.5282      2.00000
     11      -5.6109      2.00000
     12      -2.5766      2.00000
     13       2.6970      2.00000
     14       3.4534      2.00000
     15       6.0096      0.00000
     16       8.6180      0.00000
     17       9.0557      0.00000
     18      12.5098      0.00000

 k-point    13 :      -0.3636    0.0909    0.0000
  band No.  band energies     occupation 
      1     -19.8514      2.00000
      2     -19.8501      2.00000
      3     -19.7979      2.00000
      4     -19.7477      2.00000
      5     -19.7370      2.00000
      6     -19.6207      2.00000
      7     -19.6085      2.00000
      8     -19.6011      2.00000
      9     -19.5326      2.00000
     10     -19.5309      2.00000
     11      -6.0177      2.00000
     12      -1.9045      2.00000
     13       2.6932      2.00000
     14       3.6931      2.00000
     15       6.0724      0.00000
     16       8.8011      0.00000
     17       8.9058      0.00000
     18      12.2517      0.00000

 k-point    14 :      -0.2727    0.0909    0.0000
  band No.  band energies     occupation 
      1     -19.8483      2.00000
      2     -19.8457      2.00000
      3     -19.8051      2.00000
      4     -19.7552      2.00000
      5     -19.7419      2.00000
      6     -19.6188      2.00000
      7     -19.6061      2.00000
      8     -19.5873      2.00000
      9     -19.5404      2.00000
     10     -19.5324      2.00000
     11      -6.6262      2.00000
     12      -0.6497      2.00000
     13       2.8696      2.00000
     14       4.0508      2.00000
     15       6.2556      0.00000
     16       8.6897      0.00000
     17       8.9174      0.00000
     18      11.1059      0.00000

 k-point    15 :      -0.1818    0.0909    0.0000
  band No.  band energies     occupation 
      1     -19.8435      2.00000
      2     -19.8375      2.00000
      3     -19.8140      2.00000
      4     -19.7647      2.00000
      5     -19.7532      2.00000
      6     -19.6104      2.00000
      7     -19.6001      2.00000
      8     -19.5739      2.00000
      9     -19.5515      2.00000
     10     -19.5372      2.00000
     11      -7.1528      2.00000
     12       0.8481      2.00000
     13       3.2508      2.00000
     14       4.4658      2.00000
     15       6.4942      0.00000
     16       8.2817      0.00000
     17       8.5757      0.00000
     18      10.0611      0.00000

 k-point    16 :      -0.0909    0.0909    0.0000
  band No.  band energies     occupation 
      1     -19.8356      2.00000
      2     -19.8291      2.00000
      3     -19.8207      2.00000
      4     -19.7750      2.00000
      5     -19.7678      2.00000
      6     -19.5977      2.00000
      7     -19.5907      2.00000
      8     -19.5661      2.00000
      9     -19.5622      2.00000
     10     -19.5451      2.00000
     11      -7.5130      2.00000
     12       2.3232      2.00000
     13       3.9149      2.00000
     14       4.7950      2.00000
     15       6.4906      0.00000
     16       7.8489      0.00000
     17       7.9619      0.00000
     18       9.0642      0.00000

 k-point    17 :       0.1818    0.1818    0.0000
  band No.  band energies     occupation 
      1     -19.8336      2.00000
      2     -19.8336      2.00000
      3     -19.8317      2.00000
      4     -19.7683      2.00000
      5     -19.7438      2.00000
      6     -19.6329      2.00000
      7     -19.5797      2.00000
      8     -19.5588      2.00000
      9     -19.5587      2.00000
     10     -19.5459      2.00000
     11      -7.2438      2.00000
     12       1.5352      2.00000
     13       3.5567      2.00000
     14       3.5567      2.00000
     15       6.4602      0.00000
     16       7.8436      0.00000
     17       9.6536      0.00000
     18       9.6536      0.00000

 k-point    18 :       0.2727    0.1818    0.0000
  band No.  band energies     occupation 
      1     -19.8450      2.00000
      2     -19.8392      2.00000
      3     -19.8223      2.00000
      4     -19.7573      2.00000
      5     -19.7280      2.00000
      6     -19.6498      2.00000
      7     -19.5911      2.00000
      8     -19.5632      2.00000
      9     -19.5494      2.00000
     10     -19.5384      2.00000
     11      -6.8829      2.00000
     12       0.4350      2.00000
     13       3.0364      2.00000
     14       3.1814      2.00000
     15       6.5251      0.00000
     16       7.8757      0.00000
     17      10.0520      0.00000
     18      10.2852      0.00000

 k-point    19 :       0.3636    0.1818    0.0000
  band No.  band energies     occupation 
      1     -19.8555      2.00000
      2     -19.8448      2.00000
      3     -19.8081      2.00000
      4     -19.7452      2.00000
      5     -19.7173      2.00000
      6     -19.6591      2.00000
      7     -19.6039      2.00000
      8     -19.5782      2.00000
      9     -19.5404      2.00000
     10     -19.5270      2.00000
     11      -6.3557      2.00000
     12      -0.8401      2.00000
     13       2.4268      2.00000
     14       2.9555      2.00000
     15       6.6998      0.00000
     16       8.2944      0.00000
     17       9.9476      0.00000
     18      10.4836      0.00000

 k-point    20 :       0.4545    0.1818    0.0000
  band No.  band energies     occupation 
      1     -19.8628      2.00000
      2     -19.8492      2.00000
      3     -19.7935      2.00000
      4     -19.7341      2.00000
      5     -19.7158      2.00000
      6     -19.6577      2.00000
      7     -19.6166      2.00000
      8     -19.5943      2.00000
      9     -19.5331      2.00000
     10     -19.5189      2.00000
     11      -5.7443      2.00000
     12      -1.9772      2.00000
     13       1.9189      2.00000
     14       2.9032      2.00000
     15       6.6397      0.00000
     16       8.8597      0.00000
     17      10.3162      0.00000
     18      10.4572      0.00000

 k-point    21 :      -0.4545    0.1818    0.0000
  band No.  band energies     occupation 
      1     -19.8658      2.00000
      2     -19.8527      2.00000
      3     -19.7828      2.00000
      4     -19.7250      2.00000
      5     -19.7236      2.00000
      6     -19.6462      2.00000
      7     -19.6281      2.00000
      8     -19.6065      2.00000
      9     -19.5280      2.00000
     10     -19.5158      2.00000
     11      -5.3371      2.00000
     12      -2.5990      2.00000
     13       1.5876      2.00000
     14       3.0267      2.00000
     15       6.6305      0.00000
     16       8.9875      0.00000
     17      10.0296      0.00000
     18      11.8399      0.00000

 k-point    22 :      -0.3636    0.1818    0.0000
  band No.  band energies     occupation 
      1     -19.8640      2.00000
      2     -19.8544      2.00000
      3     -19.7801      2.00000
      4     -19.7365      2.00000
      5     -19.7203      2.00000
      6     -19.6358      2.00000
      7     -19.6282      2.00000
      8     -19.6118      2.00000
      9     -19.5255      2.00000
     10     -19.5186      2.00000
     11      -5.5777      2.00000
     12      -2.2387      2.00000
     13       1.4711      2.00000
     14       3.3112      2.00000
     15       6.7384      0.00000
     16       9.1105      0.00000
     17       9.7211      0.00000
     18      12.1926      0.00000

 k-point    23 :      -0.2727    0.1818    0.0000
  band No.  band energies     occupation 
      1     -19.8574      2.00000
      2     -19.8539      2.00000
      3     -19.7876      2.00000
      4     -19.7487      2.00000
      5     -19.7244      2.00000
      6     -19.6350      2.00000
      7     -19.6146      2.00000
      8     -19.6033      2.00000
      9     -19.5275      2.00000
     10     -19.5261      2.00000
     11      -6.1728      2.00000
     12      -1.2262      2.00000
     13       1.6245      2.00000
     14       3.7184      2.00000
     15       6.9187      0.00000
     16       9.2898      0.00000
     17       9.3163      0.00000
     18      10.7644      0.00000

 k-point    24 :      -0.1818    0.1818    0.0000
  band No.  band energies     occupation 
      1     -19.8501      2.00000
      2     -19.8473      2.00000
      3     -19.8017      2.00000
      4     -19.7576      2.00000
      5     -19.7371      2.00000
      6     -19.6251      2.00000
      7     -19.6088      2.00000
      8     -19.5836      2.00000
      9     -19.5409      2.00000
     10     -19.5300      2.00000
     11      -6.7378      2.00000
     12      -0.0858      2.00000
     13       2.1724      2.00000
     14       4.1632      2.00000
     15       6.9841      0.00000
     16       8.7457      0.00000
     17       8.9809      0.00000
     18      10.1463      0.00000

 k-point    25 :       0.2727    0.2727    0.0000
  band No.  band energies     occupation 
      1     -19.8433      2.00000
      2     -19.8433      2.00000
      3     -19.8268      2.00000
      4     -19.7466      2.00000
      5     -19.7082      2.00000
      6     -19.6732      2.00000
      7     -19.5998      2.00000
      8     -19.5528      2.00000
      9     -19.5435      2.00000
     10     -19.5435      2.00000
     11      -6.5811      2.00000
     12      -0.1327      2.00000
     13       2.7804      2.00000
     14       2.7804      2.00000
     15       5.8904      0.00000
     16       7.5561      0.00000
     17      11.2359      0.00000
     18      11.2359      0.00000

 k-point    26 :       0.3636    0.2727    0.0000
  band No.  band energies     occupation 
      1     -19.8530      2.00000
      2     -19.8479      2.00000
      3     -19.8135      2.00000
      4     -19.7335      2.00000
      5     -19.6929      2.00000
      6     -19.6893      2.00000
      7     -19.6130      2.00000
      8     -19.5691      2.00000
      9     -19.5358      2.00000
     10     -19.5300      2.00000
     11      -6.1026      2.00000
     12      -1.0583      2.00000
     13       2.2307      2.00000
     14       2.5265      2.00000
     15       6.0521      0.00000
     16       7.3806      0.00000
     17      11.2537      0.00000
     18      11.7681      0.00000

 k-point    27 :       0.4545    0.2727    0.0000
  band No.  band energies     occupation 
      1     -19.8639      2.00000
      2     -19.8520      2.00000
      3     -19.7938      2.00000
      4     -19.7201      2.00000
      5     -19.6980      2.00000
      6     -19.6825      2.00000
      7     -19.6275      2.00000
      8     -19.5903      2.00000
      9     -19.5290      2.00000
     10     -19.5172      2.00000
     11      -5.4987      2.00000
     12      -2.0230      2.00000
     13       1.5147      2.00000
     14       2.4502      2.00000
     15       6.2671      0.00000
     16       8.1366      0.00000
     17      10.9270      0.00000
     18      11.7334      0.00000

 k-point    28 :      -0.4545    0.2727    0.0000
  band No.  band energies     occupation 
      1     -19.8711      2.00000
      2     -19.8552      2.00000
      3     -19.7775      2.00000
      4     -19.7081      2.00000
      5     -19.6968      2.00000
      6     -19.6811      2.00000
      7     -19.6418      2.00000
      8     -19.6073      2.00000
      9     -19.5242      2.00000
     10     -19.5095      2.00000
     11      -4.9646      2.00000
     12      -2.7357      2.00000
     13       0.9592      2.00000
     14       2.5583      2.00000
     15       6.3617      0.00000
     16       9.5935      0.00000
     17      10.7346      0.00000
     18      11.4013      0.00000

 k-point    29 :      -0.3636    0.2727    0.0000
  band No.  band energies     occupation 
      1     -19.8726      2.00000
      2     -19.8570      2.00000
      3     -19.7706      2.00000
      4     -19.7107      2.00000
      5     -19.7015      2.00000
      6     -19.6643      2.00000
      7     -19.6515      2.00000
      8     -19.6144      2.00000
      9     -19.5219      2.00000
     10     -19.5084      2.00000
     11      -5.0251      2.00000
     12      -2.6539      2.00000
     13       0.7057      2.00000
     14       2.8387      2.00000
     15       6.5650      0.00000
     16      10.4120      0.00000
     17      10.9208      0.00000
     18      11.5377      0.00000

 k-point    30 :      -0.2727    0.2727    0.0000
  band No.  band energies     occupation 
      1     -19.8677      2.00000
      2     -19.8567      2.00000
      3     -19.7734      2.00000
      4     -19.7335      2.00000
      5     -19.7083      2.00000
      6     -19.6482      2.00000
      7     -19.6363      2.00000
      8     -19.6136      2.00000
      9     -19.5225      2.00000
     10     -19.5147      2.00000
     11      -5.5886      2.00000
     12      -1.9423      2.00000
     13       0.8794      2.00000
     14       3.2541      2.00000
     15       6.8482      0.00000
     16      10.2012      0.00000
     17      10.5053      0.00000
     18      10.5551      0.00000

 k-point    31 :       0.3636    0.3636    0.0000
  band No.  band energies     occupation 
      1     -19.8513      2.00000
      2     -19.8513      2.00000
      3     -19.8116      2.00000
      4     -19.7191      2.00000
      5     -19.7146      2.00000
      6     -19.6700      2.00000
      7     -19.6259      2.00000
      8     -19.5709      2.00000
      9     -19.5300      2.00000
     10     -19.5300      2.00000
     11      -5.6716      2.00000
     12      -1.7257      2.00000
     13       2.2338      2.00000
     14       2.2338      2.00000
     15       5.5894      0.00000
     16       6.6705      0.00000
     17      12.8515      0.00000
     18      12.8515      0.00000

 k-point    32 :       0.4545    0.3636    0.0000
  band No.  band energies     occupation 
      1     -19.8590      2.00000
      2     -19.8544      2.00000
      3     -19.7943      2.00000
      4     -19.7294      2.00000
      5     -19.7042      2.00000
      6     -19.6551      2.00000
      7     -19.6410      2.00000
      8     -19.5895      2.00000
      9     -19.5251      2.00000
     10     -19.5208      2.00000
     11      -5.0922      2.00000
     12      -2.5156      2.00000
     13       1.7360      2.00000
     14       2.1170      2.00000
     15       5.8296      0.00000
     16       6.6715      0.00000
     17      12.8362      0.00000
     18      13.2206      0.00000

 k-point    33 :      -0.4545    0.3636    0.0000
  band No.  band energies     occupation 
      1     -19.8687      2.00000
      2     -19.8565      2.00000
      3     -19.7744      2.00000
      4     -19.7274      2.00000
      5     -19.6901      2.00000
      6     -19.6567      2.00000
      7     -19.6546      2.00000
      8     -19.6098      2.00000
      9     -19.5218      2.00000
     10     -19.5108      2.00000
     11      -4.4865      2.00000
     12      -3.1959      2.00000
     13       1.0353      2.00000
     14       2.1880      2.00000
     15       6.0028      0.00000
     16       7.8194      0.00000
     17      12.4832      0.00000
     18      12.9082      0.00000

 k-point    34 :      -0.3636    0.3636    0.0000
  band No.  band energies     occupation 
      1     -19.8742      2.00000
      2     -19.8576      2.00000
      3     -19.7685      2.00000
      4     -19.7015      2.00000
      5     -19.6859      2.00000
      6     -19.6780      2.00000
      7     -19.6638      2.00000
      8     -19.6157      2.00000
      9     -19.5206      2.00000
     10     -19.5058      2.00000
     11      -4.4697      2.00000
     12      -3.1907      2.00000
     13       0.5972      2.00000
     14       2.4390      2.00000
     15       6.2265      0.00000
     16       9.5434      0.00000
     17      11.9747      0.00000
     18      12.1181      0.00000

 k-point    35 :       0.4545    0.4545    0.0000
  band No.  band energies     occupation 
      1     -19.8559      2.00000
      2     -19.8559      2.00000
      3     -19.7866      2.00000
      4     -19.7535      2.00000
      5     -19.6881      2.00000
      6     -19.6562      2.00000
      7     -19.6322      2.00000
      8     -19.5982      2.00000
      9     -19.5223      2.00000
     10     -19.5223      2.00000
[...]
     16       7.8243      0.00000
     17      10.0286      0.00000
     18      11.1014      0.00000

 k-point    42 :       0.4545    0.2727    0.0909
  band No.  band energies     occupation 
      1     -19.8601      2.00000
      2     -19.8532      2.00000
      3     -19.7948      2.00000
      4     -19.7339      2.00000
      5     -19.7013      2.00000
      6     -19.6757      2.00000
      7     -19.6154      2.00000
      8     -19.5910      2.00000
      9     -19.5293      2.00000
     10     -19.5218      2.00000
     11      -5.8965      2.00000
     12      -1.4815      2.00000
     13       1.6769      2.00000
     14       2.6789      2.00000
     15       7.0083      0.00000
     16       8.3104      0.00000
     17       9.7124      0.00000
     18      11.5290      0.00000

 k-point    43 :      -0.4545    0.2727    0.0909
  band No.  band energies     occupation 
      1     -19.8678      2.00000
      2     -19.8560      2.00000
      3     -19.7789      2.00000
      4     -19.7227      2.00000
      5     -19.7012      2.00000
      6     -19.6725      2.00000
      7     -19.6299      2.00000
      8     -19.6071      2.00000
      9     -19.5246      2.00000
     10     -19.5133      2.00000
     11      -5.2980      2.00000
     12      -2.3910      2.00000
     13       1.2569      2.00000
     14       2.5315      2.00000
     15       7.0709      0.00000
     16       9.0083      0.00000
     17      10.0448      0.00000
     18      11.4996      0.00000

 k-point    44 :      -0.3636    0.2727    0.0909
  band No.  band energies     occupation 
      1     -19.8702      2.00000
      2     -19.8576      2.00000
      3     -19.7712      2.00000
      4     -19.7193      2.00000
      5     -19.7049      2.00000
      6     -19.6629      2.00000
      7     -19.6396      2.00000
      8     -19.6144      2.00000
      9     -19.5222      2.00000
     10     -19.5108      2.00000
     11      -5.0771      2.00000
     12      -2.6869      2.00000
     13       1.0358      2.00000
     14       2.6161      2.00000
     15       7.1942      0.00000
     16       8.9260      0.00000
     17      11.0178      0.00000
     18      11.6815      0.00000

 k-point    45 :      -0.2727    0.2727    0.0909
  band No.  band energies     occupation 
      1     -19.8666      2.00000
      2     -19.8576      2.00000
      3     -19.7747      2.00000
      4     -19.7318      2.00000
      5     -19.7058      2.00000
      6     -19.6597      2.00000
      7     -19.6269      2.00000
      8     -19.6137      2.00000
      9     -19.5224      2.00000
     10     -19.5153      2.00000
     11      -5.5141      2.00000
     12      -2.0829      2.00000
     13       1.0727      2.00000
     14       2.9042      2.00000
     15       7.4116      0.00000
     16       8.8203      0.00000
     17      10.2473      0.00000
     18      11.3978      0.00000

 k-point    46 :      -0.1818    0.2727    0.0909
  band No.  band energies     occupation 
      1     -19.8580      2.00000
      2     -19.8553      2.00000
      3     -19.7887      2.00000
      4     -19.7447      2.00000
      5     -19.7154      2.00000
      6     -19.6532      2.00000
      7     -19.6085      2.00000
      8     -19.6026      2.00000
      9     -19.5265      2.00000
     10     -19.5250      2.00000
     11      -6.1243      2.00000
     12      -1.1564      2.00000
     13       1.4831      2.00000
     14       3.3126      2.00000
     15       7.5911      0.00000
     16       8.3441      0.00000
     17       9.6684      0.00000
     18      10.7691      0.00000

 k-point    47 :       0.4545    0.3636    0.0909
  band No.  band energies     occupation 
      1     -19.8566      2.00000
      2     -19.8562      2.00000
      3     -19.7984      2.00000
      4     -19.7196      2.00000
      5     -19.7062      2.00000
      6     -19.6762      2.00000
      7     -19.6269      2.00000
      8     -19.5848      2.00000
      9     -19.5253      2.00000
     10     -19.5245      2.00000
     11      -5.5763      2.00000
     12      -1.8564      2.00000
     13       1.7981      2.00000
     14       2.1965      2.00000
     15       6.3464      0.00000
     16       7.1955      0.00000
     17      11.2217      0.00000
     18      12.7941      0.00000

 k-point    48 :      -0.4545    0.3636    0.0909
  band No.  band energies     occupation 
      1     -19.8667      2.00000
      2     -19.8589      2.00000
      3     -19.7769      2.00000
      4     -19.7121      2.00000
      5     -19.7058      2.00000
      6     -19.6685      2.00000
      7     -19.6427      2.00000
      8     -19.6066      2.00000
      9     -19.5208      2.00000
     10     -19.5134      2.00000
     11      -4.9558      2.00000
     12      -2.6482      2.00000
     13       1.2042      2.00000
     14       2.0242      2.00000
     15       6.6970      0.00000
     16       8.0056      0.00000
     17      10.8475      0.00000
     18      12.9290      0.00000

 k-point    49 :      -0.3636    0.3636    0.0909
  band No.  band energies     occupation 
      1     -19.8730      2.00000
      2     -19.8603      2.00000
      3     -19.7638      2.00000
      4     -19.7023      2.00000
      5     -19.6942      2.00000
      6     -19.6768      2.00000
      7     -19.6565      2.00000
      8     -19.6191      2.00000
      9     -19.5187      2.00000
     10     -19.5070      2.00000
     11      -4.5579      2.00000
     12      -3.0909      2.00000
     13       0.7305      2.00000
     14       2.1340      2.00000
     15       6.8745      0.00000
     16       9.6080      0.00000
     17      10.5386      0.00000
     18      11.9182      0.00000

 k-point    50 :      -0.2727    0.3636    0.0909
  band No.  band energies     occupation 
      1     -19.8729      2.00000
      2     -19.8603      2.00000
      3     -19.7641      2.00000
      4     -19.7100      2.00000
      5     -19.6889      2.00000
      6     -19.6780      2.00000
      7     -19.6528      2.00000
      8     -19.6189      2.00000
      9     -19.5190      2.00000
     10     -19.5077      2.00000
     11      -4.9117      2.00000
     12      -2.7004      2.00000
     13       0.6333      2.00000
     14       2.4536      2.00000
     15       7.1623      0.00000
     16      10.0788      0.00000
     17      10.4774      0.00000
     18      11.5017      0.00000

 k-point    51 :      -0.4545    0.4545    0.0909
  band No.  band energies     occupation 
      1     -19.8607      2.00000
      2     -19.8607      2.00000
      3     -19.7749      2.00000
      4     -19.7434      2.00000
      5     -19.6889      2.00000
      6     -19.6570      2.00000
      7     -19.6407      2.00000
      8     -19.6089      2.00000
      9     -19.5182      2.00000
     10     -19.5181      2.00000
     11      -4.4799      2.00000
     12      -3.2199      2.00000
     13       1.6063      2.00000
     14       1.7351      2.00000
     15       6.3142      0.00000
     16       6.6035      0.00000
     17      12.7060      0.00000
     18      13.7859      0.00000

 k-point    52 :      -0.3636    0.4545    0.0909
  band No.  band energies     occupation 
      1     -19.8691      2.00000
      2     -19.8612      2.00000
      3     -19.7600      2.00000
      4     -19.7349      2.00000
      5     -19.6782      2.00000
      6     -19.6703      2.00000
      7     -19.6465      2.00000
      8     -19.6233      2.00000
      9     -19.5173      2.00000
     10     -19.5102      2.00000
     11      -4.0445      2.00000
     12      -3.6333      2.00000
     13       1.0338      2.00000
     14       1.8047      2.00000
     15       6.5842      0.00000
     16       7.8324      0.00000
     17      12.3163      0.00000
     18      12.3301      0.00000

 k-point    53 :      -0.4545    0.3636    0.1818
  band No.  band energies     occupation 
      1     -19.8657      2.00000
      2     -19.8613      2.00000
      3     -19.7740      2.00000
      4     -19.7212      2.00000
      5     -19.6882      2.00000
      6     -19.6864      2.00000
      7     -19.6315      2.00000
      8     -19.6109      2.00000
      9     -19.5189      2.00000
     10     -19.5155      2.00000
     11      -5.3064      2.00000
     12      -2.2164      2.00000
     13       1.0938      2.00000
     14       2.2472      2.00000
     15       8.0177      0.00000
     16       8.3389      0.00000
     17       9.3206      0.00000
     18      12.5612      0.00000

 k-point    54 :      -0.3636    0.3636    0.1818
  band No.  band energies     occupation 
      1     -19.8716      2.00000
      2     -19.8633      2.00000
      3     -19.7587      2.00000
      4     -19.7090      2.00000
      5     -19.6918      2.00000
      6     -19.6798      2.00000
      7     -19.6498      2.00000
      8     -19.6230      2.00000
      9     -19.5163      2.00000
     10     -19.5086      2.00000
     11      -4.7409      2.00000
     12      -2.8783      2.00000
     13       0.8261      2.00000
     14       1.9465      2.00000
     15       8.2336      0.00000
     16       8.7669      0.00000
     17       9.9597      0.00000
     18      11.6889      0.00000

 k-point    55 :      -0.3636    0.4545    0.1818
  band No.  band energies     occupation 
      1     -19.8687      2.00000
      2     -19.8667      2.00000
      3     -19.7517      2.00000
      4     -19.7223      2.00000
      5     -19.6920      2.00000
      6     -19.6611      2.00000
      7     -19.6560      2.00000
      8     -19.6291      2.00000
      9     -19.5127      2.00000
     10     -19.5107      2.00000
     11      -4.3353      2.00000
     12      -3.2828      2.00000
     13       1.0683      2.00000
     14       1.4530      2.00000
     15       7.9377      0.00000
     16       8.1202      0.00000
     17      10.4388      0.00000
     18      11.9748      0.00000

 k-point    56 :      -0.2727    0.4545    0.1818
  band No.  band energies     occupation 
      1     -19.8723      2.00000
      2     -19.8669      2.00000
      3     -19.7440      2.00000
      4     -19.7137      2.00000
      5     -19.6891      2.00000
      6     -19.6699      2.00000
      7     -19.6607      2.00000
      8     -19.6347      2.00000
      9     -19.5124      2.00000
     10     -19.5073      2.00000
     11      -4.1707      2.00000
     12      -3.4315      2.00000
     13       0.8291      2.00000
     14       1.4846      2.00000
     15       8.2521      0.00000
     16       9.6918      0.00000
     17      10.1172      0.00000
     18      10.1802      0.00000


--------------------------------------------------------------------------------------------------------


 soft charge-density along one line, spin component           1
         0         1         2         3         4         5         6         7         8         9
 total charge-density along one line

 pseudopotential strength for first ion, spin component:           1
-22.257   0.000  -0.000   0.000   0.000   4.373  -0.000   0.000
  0.000 -22.257   0.000   0.000  -0.000  -0.000   4.373  -0.000
 -0.000   0.000 -22.256   0.000  -0.000   0.000  -0.000   4.373
  0.000   0.000   0.000 -22.257   0.000  -0.000  -0.000  -0.000
  0.000  -0.000  -0.000   0.000 -22.256  -0.000   0.000   0.000
  4.373  -0.000   0.000  -0.000  -0.000   1.948   0.000   0.000
 -0.000   4.373  -0.000  -0.000   0.000   0.000   1.948  -0.000
  0.000  -0.000   4.373  -0.000   0.000   0.000  -0.000   1.947
 -0.000  -0.000  -0.000   4.373  -0.000   0.000   0.000  -0.000
 -0.000   0.000   0.000  -0.000   4.373  -0.000   0.000  -0.000
  0.000   0.000  -0.000   0.000   0.000  -0.000  -0.000   0.000
  0.000   0.000  -0.000   0.000   0.000  -0.000  -0.000   0.000
 -0.000  -0.000  -0.000  -0.001  -0.000   0.000   0.000   0.000
 -0.001  -0.000   0.000  -0.000  -0.000   0.001   0.000  -0.000
 -0.000  -0.001  -0.000  -0.000   0.000   0.000   0.001   0.000
 -0.000  -0.000  -0.000  -0.002  -0.000   0.000   0.000   0.000
 -0.002  -0.000   0.000  -0.000  -0.000   0.001   0.000  -0.000
 -0.000  -0.002  -0.000  -0.000   0.000   0.000   0.001   0.000
 total augmentation occupancy for first ion, spin component:           1
  2.006   0.000   0.000   0.000  -0.000   0.018   0.000   0.000   0.000  -0.000   0.000  -0.000   0.000   0.054   0.000  -0.000
  0.000   2.006   0.000  -0.000  -0.000   0.000   0.018   0.000  -0.000  -0.000   0.000  -0.000  -0.000  -0.000   0.054   0.000
  0.000   0.000   2.004  -0.000   0.000   0.000   0.000   0.010  -0.000   0.000   0.000  -0.000  -0.000   0.000   0.000   0.000
  0.000  -0.000  -0.000   2.006   0.000   0.000  -0.000  -0.000   0.018   0.000   0.000  -0.000   0.054   0.000  -0.000  -0.016
 -0.000  -0.000  -0.000   0.000   2.004   0.000  -0.000   0.000   0.000   0.010  -0.000  -0.000   0.000  -0.000  -0.000  -0.000
  0.018   0.000   0.000   0.000   0.000   0.042   0.000   0.000   0.000   0.000  -0.000   0.000   0.000   0.219   0.000  -0.000
  0.000   0.018   0.000  -0.000  -0.000   0.000   0.042   0.000  -0.000  -0.000   0.000  -0.000  -0.000  -0.000   0.219   0.000
  0.000   0.000   0.010  -0.000   0.000   0.000   0.000   0.012  -0.000   0.000   0.000   0.000  -0.000   0.000   0.000   0.000
  0.000  -0.000  -0.000   0.018   0.000   0.000  -0.000  -0.000   0.042   0.000   0.000   0.000   0.219   0.000  -0.000  -0.037
 -0.000  -0.000   0.000   0.000   0.010  -0.000  -0.000  -0.000   0.000   0.012  -0.000   0.000   0.000   0.000  -0.000  -0.000
  0.000   0.000   0.000   0.000   0.000  -0.000  -0.000   0.000  -0.000  -0.000   3.523  -1.048   0.000   0.000   0.000   0.000
 -0.000  -0.000   0.000  -0.000   0.000   0.000  -0.000  -0.000   0.000   0.000  -1.048   0.484   0.000  -0.000   0.000  -0.000
  0.000  -0.000  -0.000   0.054   0.000   0.000  -0.000  -0.000   0.219   0.000   0.000   0.000   2.023   0.000  -0.000  -0.336
  0.054  -0.000   0.000   0.000  -0.000   0.219  -0.000   0.000   0.000  -0.000   0.000   0.000   0.000   2.023  -0.000  -0.000
  0.000   0.054   0.000  -0.000  -0.000   0.000   0.219   0.000  -0.000  -0.000   0.000   0.000  -0.000   0.000   2.023   0.000
 -0.000   0.000   0.000  -0.016  -0.000  -0.000   0.000   0.000  -0.037  -0.000   0.000   0.000  -0.336  -0.000   0.000   0.063
 -0.016   0.000  -0.000  -0.000  -0.000  -0.037   0.000  -0.000  -0.000   0.000   0.000   0.000  -0.000  -0.336   0.000  -0.000
 -0.000  -0.016  -0.000   0.000   0.000  -0.000  -0.037  -0.000   0.000  -0.000   0.000  -0.000   0.000  -0.000  -0.336  -0.000


------------------------ aborting loop because EDIFF is reached ----------------------------------------


    CHARGE:  cpu time      0.1725: real time      0.1727
    FORLOC:  cpu time      0.0011: real time      0.0012
    FORNL :  cpu time      0.5221: real time      0.5222
    STRESS:  cpu time      1.4704: real time      1.4704
    FORCOR:  cpu time      0.0451: real time      0.0451
    FORHAR:  cpu time      0.0157: real time      0.0157
    MIXING:  cpu time      0.0010: real time      0.0010
    OFIELD:  cpu time      0.0000: real time      0.0000

  FORCE on cell =-STRESS in cart. coord.  units (eV):
  Direction    XX          YY          ZZ          XY          YZ          ZX
  --------------------------------------------------------------------------------------
  Alpha Z   129.43330   129.43330   129.43330
  Ewald    -895.76513  -895.76513  -895.76513    -0.00000    -0.00000    -0.00000
  Hartree   504.96421   504.96421   504.96421     0.00000     0.00000     0.00000
  E(xc)    -164.78663  -164.78663  -164.78664     0.00001     0.00001     0.00001
  Local     -27.93477   -27.93477   -27.93477     0.00028     0.00028     0.00028
  n-local    58.90811    60.37534    54.01696     2.36178    -1.13864     0.30037
  augment   252.05541   252.05541   252.05541    -0.00023    -0.00024    -0.00024
  Kinetic   147.69929   146.32215   141.56864     4.31879    -1.07046     1.16100
  Fock        0.00000     0.00000     0.00000     0.00000     0.00000     0.00000
  -------------------------------------------------------------------------------------
  Total       0.92989     0.92989     0.92989    -0.00000    -0.00000     0.00000
  in kB      32.90932    32.90932    32.90932    -0.00000    -0.00000     0.00000
  external pressure =       32.91 kB  Pullay stress =        0.00 kB


 VOLUME and BASIS-vectors are now :
 -----------------------------------------------------------------------------
  energy-cutoff  :      450.00
  volume of cell :       45.27
      direct lattice vectors                 reciprocal lattice vectors
     0.000000000  2.828770000  2.828770000    -0.176755268  0.176755268  0.176755268
     2.828770000  0.000000000  2.828770000     0.176755268 -0.176755268  0.176755268
     2.828770000  2.828770000  0.000000000     0.176755268  0.176755268 -0.176755268

  length of vectors
     4.000484899  4.000484899  4.000484899     0.306149105  0.306149105  0.306149105


 FORCES acting on ions
    electron-ion (+dipol)            ewald-force                    non-local-force                 convergence-correction
 -----------------------------------------------------------------------------------------------
   0.250E-06 0.250E-06 0.326E-06   -.449E-13 0.678E-14 0.184E-12   0.287E-15 0.158E-15 0.282E-15   -.177E-07 -.177E-07 -.177E-07
   -.250E-06 -.250E-06 -.326E-06   0.441E-13 -.644E-14 -.179E-12   -.410E-15 -.164E-15 -.287E-15   0.177E-07 0.177E-07 0.177E-07
 -----------------------------------------------------------------------------------------------
   0.765E-11 0.138E-11 -.491E-12   -.805E-15 0.340E-15 0.466E-14   -.124E-15 -.600E-17 -.513E-17   -.331E-14 -.817E-13 -.195E-13


 POSITION                                       TOTAL-FORCE (eV/Angst)
 -----------------------------------------------------------------------------------
      4.95035      4.95035      4.95035        -0.000000     -0.000000     -0.000000
      0.70719      0.70719      0.70719         0.000000      0.000000      0.000000
 -----------------------------------------------------------------------------------
    total drift:                                0.000000      0.000000     -0.000000


--------------------------------------------------------------------------------------------------------



  FREE ENERGIE OF THE ION-ELECTRON SYSTEM (eV)
  ---------------------------------------------------
  free  energy   TOTEN  =        -9.00712139 eV

  energy  without entropy=       -9.00706107  energy(sigma->0) =       -9.00709123



--------------------------------------------------------------------------------------------------------


    POTLOK:  cpu time      0.1479: real time      0.1479


--------------------------------------------------------------------------------------------------------


 writing wavefunctions
     LOOP+:  cpu time     22.8826: real time     22.8965
    4ORBIT:  cpu time      0.0000: real time      0.0000

 total amount of memory used by VASP MPI-rank0    64780. kBytes
=======================================================================

   base      :      30000. kBytes
   nonl-proj :       8079. kBytes
   fftplans  :      13127. kBytes
   grid      :       5205. kBytes
   one-center:         31. kBytes
   wavefun   :       8338. kBytes

  
  
 General timing and accounting informations for this job:
 ========================================================
  
                  Total CPU time used (sec):       24.093
                            User time (sec):       22.105
                          System time (sec):        1.989
                         Elapsed time (sec):       24.408
  
                   Maximum memory used (kb):      127836.
                   Average memory used (kb):          N/A
  
                          Minor page faults:       268422
                          Major page faults:          353
                 Voluntary context switches:         1404
