 vasp.6.3.2 27Jun22 (build Jan 20 2026 21:31:33) complex                         
 executed on             LinuxGNU date 2026.03.21  23:08:00
 running   32 mpi-ranks, with    1 threads/rank
 distrk:  each k-point on   32 cores,    1 groups
 distr:  one band on NCORE=   8 cores,    4 groups


--------------------------------------------------------------------------------------------------------


 INCAR:
   SYSTEM = Ge slab pre-relax
   NCORE = 8
   ISTART = 1
   ICHARG = 11
   ISPIN = 1
   ISYM = 0
   ENCUT = 450
   PREC = Normal
   LWAVE = .FALSE.
   LCHARG = .FALSE.
   ADDGRID = .TRUE.
   ALGO = Normal
   ISMEAR = 0
   SIGMA = 0.05
   NELM = 120
   EDIFF = 1E-5
   AMIX = 0.2
   BMIX = 0.0001
   AMIN = 0.01
   LDIPOL = .TRUE.
   IDIPOL = 3
   LORBIT = 11
   NEDOS = 3001

 POTCAR:    PAW_PBE Ge_d 03Jul2007                
 POTCAR:    PAW_PBE H 15Jun2001                   
 POTCAR:    PAW_PBE Ge_d 03Jul2007                
   VRHFIN =Ge: 3d4s4p                                                                               
   LEXCH  = PE                                                                                      
   EATOM  =  2596.2402 eV,  190.8183 Ry                                                             
                                                                                                    
   TITEL  = PAW_PBE Ge_d 03Jul2007                                                                  
   LULTRA =        F    use ultrasoft PP ?                                                          
   IUNSCR =        1    unscreen: 0-lin 1-nonlin 2-no                                               
   RPACOR =    2.000    partial core radius                                                         
   POMASS =   72.610; ZVAL   =   14.000    mass and valenz                                          
   RCORE  =    2.300    outmost cutoff radius                                                       
   RWIGS  =    2.300; RWIGS  =    1.217    wigner-seitz radius (au A)                               
   ENMAX  =  310.294; ENMIN  =  232.720 eV                                                          
   ICORE  =        3    local potential                                                             
   LCOR   =        T    correct aug charges                                                         
   LPAW   =        T    paw PP                                                                      
   EAUG   =  531.356                                                                                
   DEXC   =    0.000                                                                                
   RMAX   =    2.342    core radius for proj-oper                                                   
   RAUG   =    1.300    factor for augmentation sphere                                              
   RDEP   =    2.318    radius for radial grids                                                     
   RDEPT  =    1.783    core radius for aug-charge                                                  
                                                                                                    
   Atomic configuration                                                                             
    9 entries                                                                                       
     n  l   j            E        occ.                                                              
     1  0  0.50    -10959.8463   2.0000                                                             
     2  0  0.50     -1371.6056   2.0000                                                             
     2  1  1.50     -1198.4791   6.0000                                                             
     3  0  0.50      -168.4733   2.0000                                                             
     3  1  1.50      -115.6019   6.0000                                                             
     3  2  2.50       -29.3106  10.0000                                                             
     4  0  0.50       -11.7309   2.0000                                                             
     4  1  0.50        -3.8952   2.0000                                                             
     4  3  2.50        -4.0817   0.0000                                                             
   Description                                                                                      
     l       E           TYP  RCUT    TYP  RCUT                                                     
     2    -29.3105938     23  2.200                                                                 
     2    -13.6058260     23  2.200                                                                 
     0    -11.7309493     23  2.300                                                                 
     0     -7.4578696     23  2.300                                                                 
     1     -3.8952261     23  2.300                                                                 
     1      6.1178114     23  2.300                                                                 
     3     -1.3605826     23  2.300                                                                 
  local pseudopotential read in
  partial core-charges read in
  partial kinetic energy density read in
  atomic valenz-charges read in
  non local Contribution for L=           2  read in
    real space projection operators read in
  non local Contribution for L=           2  read in
    real space projection operators read in
  non local Contribution for L=           0  read in
    real space projection operators read in
  non local Contribution for L=           0  read in
    real space projection operators read in
  non local Contribution for L=           1  read in
    real space projection operators read in
  non local Contribution for L=           1  read in
    real space projection operators read in
    PAW grid and wavefunctions read in

   number of l-projection  operators is LMAX  =           6
   number of lm-projection operators is LMMAX =          18

 POTCAR:    PAW_PBE H 15Jun2001                   
   VRHFIN =H: ultrasoft test                                                                        
   LEXCH  = PE                                                                                      
   EATOM  =    12.4884 eV,    0.9179 Ry                                                             
                                                                                                    
   TITEL  = PAW_PBE H 15Jun2001                                                                     
   LULTRA =        F    use ultrasoft PP ?                                                          
   IUNSCR =        0    unscreen: 0-lin 1-nonlin 2-no                                               
   RPACOR =    0.000    partial core radius                                                         
   POMASS =    1.000; ZVAL   =    1.000    mass and valenz                                          
   RCORE  =    1.100    outmost cutoff radius                                                       
   RWIGS  =    0.700; RWIGS  =    0.370    wigner-seitz radius (au A)                               
   ENMAX  =  250.000; ENMIN  =  200.000 eV                                                          
   RCLOC  =    0.701    cutoff for local pot                                                        
   LCOR   =        T    correct aug charges                                                         
   LPAW   =        T    paw PP                                                                      
   EAUG   =  400.000                                                                                
   RMAX   =    1.123    core radius for proj-oper                                                   
   RAUG   =    1.200    factor for augmentation sphere                                              
   RDEP   =    1.112    radius for radial grids                                                     
   RDEPT  =    0.926    core radius for aug-charge                                                  
                                                                                                    
   Atomic configuration                                                                             
    2 entries                                                                                       
     n  l   j            E        occ.                                                              
     1  0  0.50        -6.4927   1.0000                                                             
     2  1  0.50        -3.4015   0.0000                                                             
   Description                                                                                      
     l       E           TYP  RCUT    TYP  RCUT                                                     
     0     -6.4927494     23  1.100                                                                 
     0      6.8029130     23  1.100                                                                 
     1     -4.0817478     23  1.100                                                                 
  local pseudopotential read in
  atomic valenz-charges read in
  non local Contribution for L=           0  read in
    real space projection operators read in
  non local Contribution for L=           0  read in
    real space projection operators read in
  non local Contribution for L=           1  read in
    real space projection operators read in
    PAW grid and wavefunctions read in

   number of l-projection  operators is LMAX  =           3
   number of lm-projection operators is LMMAX =           5

 -----------------------------------------------------------------------------
|                                                                             |
|               ----> ADVICE to this user running VASP <----                  |
|                                                                             |
|     You have a (more or less) 'large supercell' and for larger cells it     |
|     might be more efficient to use real-space projection operators.         |
|     Therefore, try LREAL= Auto in the INCAR file.                           |
|     Mind: For very accurate calculation, you might also keep the            |
|     reciprocal projection scheme (i.e. LREAL=.FALSE.).                      |
|                                                                             |
 -----------------------------------------------------------------------------

  PAW_PBE Ge_d 03Jul2007                :
 energy of atom  1       EATOM=-2596.2402
 kinetic energy error for atom=    0.0077 (will be added to EATOM!!)
  PAW_PBE H 15Jun2001                   :
 energy of atom  2       EATOM=  -12.4884
 kinetic energy error for atom=    0.0045 (will be added to EATOM!!)


 POSCAR: Converted by xsd2pos.py
  positions in direct lattice
  velocities in cartesian coordinates
 exchange correlation table for  LEXCH =        8
   RHO(1)=    0.500       N(1)  =     2000
   RHO(2)=  100.500       N(2)  =     4000



--------------------------------------------------------------------------------------------------------


 ion  position               nearest neighbor table
   1  1.000  0.500  0.367-  17 2.46  11 2.46  15 2.49  13 2.49
   2  0.000  0.500  0.576-  12 2.44  14 2.44  16 2.44  18 2.44
   3  0.500  1.000  0.367-  17 2.46  11 2.46  15 2.49  13 2.49
   4  0.500  0.000  0.576-  12 2.44  14 2.44  16 2.44  18 2.44
   5  1.000  0.000  0.258-  17 2.52  11 2.52
   6  0.000  0.000  0.475-  12 2.44  18 2.44  13 2.48  15 2.48
   7  0.000  0.000  0.678-  19 1.50  20 1.50  14 2.44  16 2.44
   8  0.500  0.500  0.258-  11 2.52  17 2.52
   9  0.500  0.500  0.475-  12 2.44  18 2.44  15 2.48  13 2.48
  10  0.500  0.500  0.678-  21 1.50  22 1.50  14 2.44  16 2.44
  11  0.250  0.250  0.314-   1 2.46   3 2.46   8 2.52   5 2.52
  12  0.250  0.250  0.525-   6 2.44   9 2.44   2 2.44   4 2.44
  13  0.250  0.750  0.421-   9 2.48   6 2.48   1 2.49   3 2.49
  14  0.250  0.750  0.627-   2 2.44   4 2.44   7 2.44  10 2.44
  15  0.750  0.250  0.421-   9 2.48   6 2.48   1 2.49   3 2.49
  16  0.750  0.250  0.627-   2 2.44   4 2.44   7 2.44  10 2.44
  17  0.750  0.750  0.314-   3 2.46   1 2.46   5 2.52   8 2.52
  18  0.750  0.750  0.525-   6 2.44   9 2.44   2 2.44   4 2.44
  19  0.846  0.846  0.709-   7 1.50
  20  0.154  0.154  0.709-   7 1.50
  21  0.346  0.346  0.709-  10 1.50
  22  0.654  0.654  0.709-  10 1.50


IMPORTANT INFORMATION: All symmetrisations will be switched off!
NOSYMM: (Re-)initialisation of all symmetry stuff for point group C_1.


----------------------------------------------------------------------------------------

                                     Primitive cell                                     

  volume of cell :     874.8731

  direct lattice vectors                    reciprocal lattice vectors
     5.624500000  0.000000000  0.000000000     0.177793582  0.000000000  0.000000000
     0.000000000  5.624500000  0.000000000     0.000000000  0.177793582  0.000000000
     0.000000000  0.000000000 27.655225140     0.000000000  0.000000000  0.036159532

  length of vectors
     5.624500000  5.624500000 27.655225140     0.177793582  0.177793582  0.036159532

  position of ions in fractional coordinates (direct lattice)
     0.999999681  0.499999170  0.366826133
     0.000000000  0.500000000  0.576265420
     0.500000027  0.999999694  0.366825926
     0.500000000  0.000000000  0.576265420
     0.999991375  0.000003364  0.258082177
     0.000000000  0.000000000  0.474575780
     0.000000000  0.000000000  0.677955070
     0.500004550  0.499990498  0.258082349
     0.500000000  0.500000000  0.474575780
     0.500000000  0.500000000  0.677955070
     0.249997381  0.249997523  0.314222531
     0.250000000  0.250000000  0.525420600
     0.249999869  0.749999831  0.421231291
     0.250000000  0.750000000  0.627110240
     0.749999418  0.249999497  0.421231288
     0.750000000  0.250000000  0.627110240
     0.749998301  0.749997402  0.314222586
     0.750000000  0.750000000  0.525420600
     0.846026280  0.846026280  0.709270160
     0.153973720  0.153973720  0.709270160
     0.346026280  0.346026280  0.709270160
     0.653973720  0.653973720  0.709270160

  ion indices of the primitive-cell ions
   primitive index   ion index
                 1           1
                 2           2
                 3           3
                 4           4
                 5           5
                 6           6
                 7           7
                 8           8
                 9           9
                10          10
                11          11
                12          12
                13          13
                14          14
                15          15
                16          16
                17          17
                18          18
                19          19
                20          20
                21          21
                22          22

----------------------------------------------------------------------------------------



 KPOINTS: Ge slab regular mesh                    

Automatic generation of k-mesh.
 Grid dimensions read from file:
 generate k-points for:    4    4    1

 Generating k-lattice:

  Cartesian coordinates                     Fractional coordinates (reciprocal lattice)
     0.044448395  0.000000000  0.000000000     0.250000000  0.000000000  0.000000000
     0.000000000  0.044448395  0.000000000     0.000000000  0.250000000  0.000000000
     0.000000000  0.000000000  0.036159532     0.000000000  0.000000000  1.000000000

  Length of vectors
     0.044448395  0.044448395  0.036159532

  Shift w.r.t. Gamma in fractional coordinates (k-lattice)
     0.000000000  0.000000000  0.000000000

 
 Subroutine IBZKPT returns following result:
 ===========================================
 
 Found     10 irreducible k-points:
 
 Following reciprocal coordinates:
            Coordinates               Weight
  0.000000  0.000000  0.000000      1.000000
  0.250000  0.000000  0.000000      2.000000
  0.000000  0.250000  0.000000      2.000000
  0.500000  0.000000  0.000000      1.000000
  0.000000  0.500000  0.000000      1.000000
  0.250000  0.250000  0.000000      2.000000
 -0.250000  0.250000  0.000000      2.000000
  0.500000  0.250000  0.000000      2.000000
 -0.250000  0.500000  0.000000      2.000000
  0.500000  0.500000  0.000000      1.000000
 
 Following cartesian coordinates:
            Coordinates               Weight
  0.000000  0.000000  0.000000      1.000000
  0.044448  0.000000  0.000000      2.000000
  0.000000  0.044448  0.000000      2.000000
  0.088897  0.000000  0.000000      1.000000
  0.000000  0.088897  0.000000      1.000000
  0.044448  0.044448  0.000000      2.000000
 -0.044448  0.044448  0.000000      2.000000
  0.088897  0.044448  0.000000      2.000000
 -0.044448  0.088897  0.000000      2.000000
  0.088897  0.088897  0.000000      1.000000
 


--------------------------------------------------------------------------------------------------------




 Dimension of arrays:
   k-points           NKPTS =     10   k-points in BZ     NKDIM =     10   number of bands    NBANDS=    156
   number of dos      NEDOS =   3001   number of ions     NIONS =     22
   non local maximal  LDIM  =      6   non local SUM 2l+1 LMDIM =     18
   total plane-waves  NPLWV = 129600
   max r-space proj   IRMAX =      1   max aug-charges    IRDMAX=  40051
   dimension x,y,z NGX =    30 NGY =   30 NGZ =  144
   dimension x,y,z NGXF=    60 NGYF=   60 NGZF=  288
   support grid    NGXF=   120 NGYF=  120 NGZF=  576
   ions per type =              18   4
   NGX,Y,Z   is equivalent  to a cutoff of   8.87,  8.87,  8.66 a.u.
   NGXF,Y,Z  is equivalent  to a cutoff of  17.73, 17.73, 17.31 a.u.

 SYSTEM =  Ge slab pre-relax                       
 POSCAR =  Converted by xsd2pos.py                 

 Startparameter for this run:
   NWRITE =      2    write-flag & timer
   PREC   = normal    normal or accurate (medium, high low for compatibility)
   ISTART =      1    job   : 0-new  1-cont  2-samecut
   ICHARG =     11    charge: 1-file 2-atom 10-const
   ISPIN  =      1    spin polarized calculation?
   LNONCOLLINEAR =      F non collinear calculations
   LSORBIT =      F    spin-orbit coupling
   INIWAV =      1    electr: 0-lowe 1-rand  2-diag
   LASPH  =      F    aspherical Exc in radial PAW
 Electronic Relaxation 1
   ENCUT  =  450.0 eV  33.07 Ry    5.75 a.u.   9.73  9.73 47.83*2*pi/ulx,y,z
   ENINI  =  450.0     initial cutoff
   ENAUG  =  531.4 eV  augmentation charge cutoff
   NELM   =    120;   NELMIN=  2; NELMDL=  0     # of ELM steps 
   EDIFF  = 0.1E-04   stopping-criterion for ELM
   LREAL  =      F    real-space projection
   NLSPLINE    = F    spline interpolate recip. space projectors
   LCOMPAT=      F    compatible to vasp.4.4
   GGA_COMPAT  = T    GGA compatible to vasp.4.4-vasp.4.6
   LMAXPAW     = -100 max onsite density
   LMAXMIX     =    2 max onsite mixed and CHGCAR
   VOSKOWN=      0    Vosko Wilk Nusair interpolation
   ROPT   =    0.00000   0.00000
 Ionic relaxation
   EDIFFG = 0.1E-03   stopping-criterion for IOM
   NSW    =      0    number of steps for IOM
   NBLOCK =      1;   KBLOCK =      1    inner block; outer block 
   IBRION =     -1    ionic relax: 0-MD 1-quasi-New 2-CG
   NFREE  =      0    steps in history (QN), initial steepest desc. (CG)
   ISIF   =      2    stress and relaxation
   IWAVPR =     10    prediction:  0-non 1-charg 2-wave 3-comb
   ISYM   =      0    0-nonsym 1-usesym 2-fastsym
   LCORR  =      T    Harris-Foulkes like correction to forces

   POTIM  = 0.5000    time-step for ionic-motion
   TEIN   =    0.0    initial temperature
   TEBEG  =    0.0;   TEEND  =   0.0 temperature during run
   SMASS  =  -3.00    Nose mass-parameter (am)
   estimated Nose-frequenzy (Omega)   =  0.10E-29 period in steps = 0.13E+47 mass=  -0.723E-27a.u.
   SCALEE = 1.0000    scale energy and forces
   NPACO  =    256;   APACO  = 10.0  distance and # of slots for P.C.
   PSTRESS=    0.0 pullay stress

  Mass of Ions in am
   POMASS =  72.61  1.00
  Ionic Valenz
   ZVAL   =  14.00  1.00
  Atomic Wigner-Seitz radii
   RWIGS  =  -1.00 -1.00
  virtual crystal weights 
   VCA    =   1.00  1.00
   NELECT =     256.0000    total number of electrons
   NUPDOWN=      -1.0000    fix difference up-down

 DOS related values:
   EMIN   =  10.00;   EMAX   =-10.00  energy-range for DOS
   EFERMI =   0.00
   ISMEAR =     0;   SIGMA  =   0.05  broadening in eV -4-tet -1-fermi 0-gaus

 Electronic relaxation 2 (details)
   IALGO  =     38    algorithm
   LDIAG  =      T    sub-space diagonalisation (order eigenvalues)
   LSUBROT=      F    optimize rotation matrix (better conditioning)
   TURBO    =      0    0=normal 1=particle mesh
   IRESTART =      0    0=no restart 2=restart with 2 vectors
   NREBOOT  =      0    no. of reboots
   NMIN     =      0    reboot dimension
   EREF     =   0.00    reference energy to select bands
   IMIX   =      4    mixing-type and parameters
     AMIX     =   0.20;   BMIX     =  0.00
     AMIX_MAG =   0.80;   BMIX_MAG =  0.00
     AMIN     =   0.01
     WC   =   100.;   INIMIX=   1;  MIXPRE=   1;  MAXMIX= -45

 Intra band minimization:
   WEIMIN = 0.0000     energy-eigenvalue tresh-hold
   EBREAK =  0.16E-07  absolut break condition
   DEPER  =   0.30     relativ break condition  

   TIME   =   0.40     timestep for ELM

  volume/ion in A,a.u.               =      39.77       268.36
  Fermi-wavevector in a.u.,A,eV,Ry     =   1.086859  2.053865 16.072047  1.181262
  Thomas-Fermi vector in A             =   2.223005

 Write flags
   LWAVE        =      F    write WAVECAR
   LDOWNSAMPLE  =      F    k-point downsampling of WAVECAR
   LCHARG       =      F    write CHGCAR
   LVTOT        =      F    write LOCPOT, total local potential
   LVHAR        =      F    write LOCPOT, Hartree potential only
   LELF         =      F    write electronic localiz. function (ELF)
   LORBIT       =     11    0 simple, 1 ext, 2 COOP (PROOUT), +10 PAW based schemes


 Dipole corrections
   LMONO  =      F    monopole corrections only (constant potential shift)
   LDIPOL =      T    correct potential (dipole corrections)
   IDIPOL =      3    1-x, 2-y, 3-z, 4-all directions 
   EPSILON=  1.0000000 bulk dielectric constant

 Exchange correlation treatment:
   GGA     =    --    GGA type
   LEXCH   =     8    internal setting for exchange type
   LIBXC   =     F    Libxc                    
   VOSKOWN =     0    Vosko Wilk Nusair interpolation
   LHFCALC =     F    Hartree Fock is set to
   LHFONE  =     F    Hartree Fock one center treatment
   AEXX    =    0.0000 exact exchange contribution

 Linear response parameters
   LEPSILON=     F    determine dielectric tensor
   LRPA    =     F    only Hartree local field effects (RPA)
   LNABLA  =     F    use nabla operator in PAW spheres
   LVEL    =     F    velocity operator in full k-point grid
   CSHIFT  =0.1000    complex shift for real part using Kramers Kronig
   OMEGAMAX=  -1.0    maximum frequency
   DEG_THRESHOLD= 0.2000000E-02 threshold for treating states as degnerate
   RTIME   =   -0.100 relaxation time in fs
  (WPLASMAI=    0.000 imaginary part of plasma frequency in eV, 0.658/RTIME)
   DFIELD  = 0.0000000 0.0000000 0.0000000 field for delta impulse in time

  Optional k-point grid parameters
   LKPOINTS_OPT  =     F    use optional k-point grid
   KPOINTS_OPT_MODE=     1    mode for optional k-point grid

 Orbital magnetization related:
   ORBITALMAG=     F  switch on orbital magnetization
   LCHIMAG   =     F  perturbation theory with respect to B field
   DQ        =  0.001000  dq finite difference perturbation B field
   LLRAUG    =     F  two centre corrections for induced B field



--------------------------------------------------------------------------------------------------------


 Static calculation
 charge density and potential remain constant during run
 non-spin polarized calculation
 Variant of blocked Davidson
 Davidson routine will perform the subspace rotation
 perform sub-space diagonalisation
    after iterative eigenvector-optimisation
 no mixing
 using additional bands           28
 reciprocal scheme for non local part
 use partial core corrections
 calculate Harris-corrections to forces   (improved forces if not selfconsistent)
 use gradient corrections 
 WARNING: stress and forces are not correct
  (second derivative of E(xc) not defined)
 use of overlap-Matrix (Vanderbilt PP)
 Gauss-broadening in eV      SIGMA  =   0.05


--------------------------------------------------------------------------------------------------------


  energy-cutoff  :      450.00
  volume of cell :      874.87
      direct lattice vectors                 reciprocal lattice vectors
     5.624500000  0.000000000  0.000000000     0.177793582  0.000000000  0.000000000
     0.000000000  5.624500000  0.000000000     0.000000000  0.177793582  0.000000000
     0.000000000  0.000000000 27.655225140     0.000000000  0.000000000  0.036159532

  length of vectors
     5.624500000  5.624500000 27.655225140     0.177793582  0.177793582  0.036159532



 old parameters found on file WAVECAR:
  energy-cutoff  :      450.00
  volume of cell :      874.87
      direct lattice vectors                 reciprocal lattice vectors
     5.624500000  0.000000000  0.000000000     0.177793582  0.000000000  0.000000000
     0.000000000  5.624500000  0.000000000     0.000000000  0.177793582  0.000000000
     0.000000000  0.000000000 27.655225140     0.000000000  0.000000000  0.036159532

  length of vectors


 k-points in units of 2pi/SCALE and weight: Ge slab regular mesh                    
   0.00000000  0.00000000  0.00000000       0.062
   0.04444840  0.00000000  0.00000000       0.125
   0.00000000  0.04444840  0.00000000       0.125
   0.08889679  0.00000000  0.00000000       0.062
   0.00000000  0.08889679  0.00000000       0.062
   0.04444840  0.04444840  0.00000000       0.125
  -0.04444840  0.04444840  0.00000000       0.125
   0.08889679  0.04444840  0.00000000       0.125
  -0.04444840  0.08889679  0.00000000       0.125
   0.08889679  0.08889679  0.00000000       0.062

 k-points in reciprocal lattice and weights: Ge slab regular mesh                    
   0.00000000  0.00000000  0.00000000       0.062
   0.25000000  0.00000000  0.00000000       0.125
   0.00000000  0.25000000  0.00000000       0.125
   0.50000000  0.00000000  0.00000000       0.062
   0.00000000  0.50000000  0.00000000       0.062
   0.25000000  0.25000000  0.00000000       0.125
  -0.25000000  0.25000000  0.00000000       0.125
   0.50000000  0.25000000  0.00000000       0.125
  -0.25000000  0.50000000  0.00000000       0.125
   0.50000000  0.50000000  0.00000000       0.062

 position of ions in fractional coordinates (direct lattice) 
   0.99999968  0.49999917  0.36682613
   0.00000000  0.50000000  0.57626542
   0.50000003  0.99999969  0.36682593
   0.50000000  0.00000000  0.57626542
   0.99999137  0.00000336  0.25808218
   0.00000000  0.00000000  0.47457578
   0.00000000  0.00000000  0.67795507
   0.50000455  0.49999050  0.25808235
   0.50000000  0.50000000  0.47457578
   0.50000000  0.50000000  0.67795507
   0.24999738  0.24999752  0.31422253
   0.25000000  0.25000000  0.52542060
   0.24999987  0.74999983  0.42123129
   0.25000000  0.75000000  0.62711024
   0.74999942  0.24999950  0.42123129
   0.75000000  0.25000000  0.62711024
   0.74999830  0.74999740  0.31422259
   0.75000000  0.75000000  0.52542060
   0.84602628  0.84602628  0.70927016
   0.15397372  0.15397372  0.70927016
   0.34602628  0.34602628  0.70927016
   0.65397372  0.65397372  0.70927016

 position of ions in cartesian coordinates  (Angst):
   5.62449821  2.81224533 10.14465930
   0.00000000  2.81225000 15.93674993
   2.81225015  5.62449828 10.14465358
   2.81225000  0.00000000 15.93674993
   5.62445149  0.00001892  7.13732072
   0.00000000  0.00000000 13.12450004
   0.00000000  0.00000000 18.74900010
   2.81227559  2.81219656  7.13732547
   2.81225000  2.81225000 13.12450004
   2.81225000  2.81225000 18.74900010
   1.40611027  1.40611107  8.68989484
   1.40612500  1.40612500 14.53062499
   1.40612426  4.21837405 11.64924618
   1.40612500  4.21837500 17.34287487
   4.21837173  1.40612217 11.64924612
   4.21837500  1.40612500 17.34287487
   4.21836544  4.21836039  8.68989636
   4.21837500  4.21837500 14.53062499
   4.75847481  4.75847481 19.61502596
   0.86602519  0.86602519 19.61502596
   1.94622481  1.94622481 19.61502596
   3.67827519  3.67827519 19.61502596



--------------------------------------------------------------------------------------------------------


 k-point   1 :   0.0000 0.0000 0.0000  plane waves:   18987
 k-point   2 :   0.2500 0.0000 0.0000  plane waves:   18969
 k-point   3 :   0.0000 0.2500 0.0000  plane waves:   18969
 k-point   4 :   0.5000 0.0000 0.0000  plane waves:   19012
 k-point   5 :   0.0000 0.5000 0.0000  plane waves:   19012
 k-point   6 :   0.2500 0.2500 0.0000  plane waves:   18936
 k-point   7 :  -0.2500 0.2500 0.0000  plane waves:   18936
 k-point   8 :   0.5000 0.2500 0.0000  plane waves:   18922
 k-point   9 :  -0.2500 0.5000 0.0000  plane waves:   18922
 k-point  10 :   0.5000 0.5000 0.0000  plane waves:   19012

 maximum and minimum number of plane-waves per node :      2398     2345

 maximum number of plane-waves:     19012
 maximum index in each direction: 
   IXMAX=    9   IYMAX=    9   IZMAX=   47
   IXMIN=  -10   IYMIN=  -10   IZMIN=  -47


 parallel 3D FFT for wavefunctions:
    minimum data exchange during FFTs selected (reduces bandwidth)
 parallel 3D FFT for charge:
    minimum data exchange during FFTs selected (reduces bandwidth)


 total amount of memory used by VASP MPI-rank0    61140. kBytes
=======================================================================

   base      :      30000. kBytes
   nonl-proj :       7718. kBytes
   fftplans  :       5488. kBytes
   grid      :       2638. kBytes
   one-center:         46. kBytes
   wavefun   :      15250. kBytes

     INWAV:  cpu time      1.0916: real time      1.0916
 initial charge density was supplied:
 number of electron     256.0000056 magnetization 
 keeping initial charge density in first step


--------------------------------------------------------------------------------------------------------


 Maximum index for augmentation-charges         1373 (set IRDMAX)


--------------------------------------------------------------------------------------------------------


 First call to EWALD:  gamma=   0.185
 Maximum number of real-space cells 4x 4x 1
 Maximum number of reciprocal cells 2x 2x 7

    FEWALD:  cpu time      0.0010: real time      0.0010


--------------------------------------- Iteration      1(   1)  ---------------------------------------


    POTLOK:  cpu time      0.0211: real time      0.0211
    SETDIJ:  cpu time      0.0253: real time      0.0253
     EDDAV:  cpu time      5.2463: real time      5.2468
       DOS:  cpu time      0.0022: real time      0.0022
    --------------------------------------------
      LOOP:  cpu time      5.2948: real time      5.2953

 eigenvalue-minimisations  :  4096
 total energy-change (2. order) :-0.9043085E+02  (-0.4624240E-04)
 number of electron     256.0000056 magnetization 
 augmentation part      256.0000056 magnetization 

 DIPCOR: dipole corrections for dipol
 direction  3 min pos   277,
 dipolmoment           0.000000      0.000000     -0.140956 electrons x Angstroem
 Tr[quadrupol]     -1567.739791

 energy correction for charged system         0.000000 eV
 dipol+quadrupol energy correction           -0.002055 eV
 added-field ion interaction          3.443626 eV  (added to PSCEN)


 Free energy of the ion-electron system (eV)
  ---------------------------------------------------
  alpha Z        PSCENC =       557.41576339
  Ewald energy   TEWEN  =     94864.95685244
  -Hartree energ DENC   =   -130908.85557325
  -exchange      EXHF   =         0.00000000
  -V(xc)+E(xc)   XCENC  =      1320.76294135
  PAW double counting   =     40366.01306409   -48243.24983354
  entropy T*S    EENTRO =        -0.00663968
  eigenvalues    EBANDS =     -4829.58871512
  atomic energy  EATOM  =     46782.12128830
  Solvation  Ediel_sol  =         0.00000000
  ---------------------------------------------------
  free energy    TOTEN  =       -90.43085202 eV

  energy without entropy =      -90.42421235  energy(sigma->0) =      -90.42753218


--------------------------------------------------------------------------------------------------------




--------------------------------------- Iteration      1(   2)  ---------------------------------------


     EDDAV:  cpu time      4.6135: real time      4.6140
       DOS:  cpu time      0.0021: real time      0.0021
    --------------------------------------------
      LOOP:  cpu time      4.6156: real time      4.6161

 eigenvalue-minimisations  :  3380
 total energy-change (2. order) :-0.1209297E-04  (-0.1209289E-04)
 number of electron     256.0000056 magnetization 
 augmentation part      256.0000056 magnetization 

 DIPCOR: dipole corrections for dipol
 direction  3 min pos   277,
 dipolmoment           0.000000      0.000000     -0.140956 electrons x Angstroem
 Tr[quadrupol]     -1567.739791

 energy correction for charged system         0.000000 eV
 dipol+quadrupol energy correction           -0.002055 eV
 added-field ion interaction          3.443626 eV  (added to PSCEN)


 Free energy of the ion-electron system (eV)
  ---------------------------------------------------
  alpha Z        PSCENC =       557.41576339
  Ewald energy   TEWEN  =     94864.95685244
  -Hartree energ DENC   =   -130908.85557325
  -exchange      EXHF   =         0.00000000
  -V(xc)+E(xc)   XCENC  =      1320.76294135
  PAW double counting   =     40366.01306409   -48243.24983354
  entropy T*S    EENTRO =        -0.00663968
  eigenvalues    EBANDS =     -4829.58872722
  atomic energy  EATOM  =     46782.12128830
  Solvation  Ediel_sol  =         0.00000000
  ---------------------------------------------------
  free energy    TOTEN  =       -90.43086411 eV

  energy without entropy =      -90.42422444  energy(sigma->0) =      -90.42754428


--------------------------------------------------------------------------------------------------------




--------------------------------------- Iteration      1(   3)  ---------------------------------------


     EDDAV:  cpu time      2.9923: real time      2.9925
       DOS:  cpu time      0.0020: real time      0.0020
    --------------------------------------------
      LOOP:  cpu time      2.9944: real time      2.9945

 eigenvalue-minimisations  :  1816
 total energy-change (2. order) :-0.3997557E-06  (-0.3999220E-06)
 number of electron     256.0000056 magnetization 
 augmentation part      256.0000056 magnetization 

 DIPCOR: dipole corrections for dipol
 direction  3 min pos   277,
 dipolmoment           0.000000      0.000000     -0.140956 electrons x Angstroem
 Tr[quadrupol]     -1567.739791

 energy correction for charged system         0.000000 eV
 dipol+quadrupol energy correction           -0.002055 eV
 added-field ion interaction          3.443626 eV  (added to PSCEN)


 Free energy of the ion-electron system (eV)
  ---------------------------------------------------
  alpha Z        PSCENC =       557.41576339
  Ewald energy   TEWEN  =     94864.95685244
  -Hartree energ DENC   =   -130908.85557325
  -exchange      EXHF   =         0.00000000
  -V(xc)+E(xc)   XCENC  =      1320.76294135
  PAW double counting   =     40366.01306409   -48243.24983354
  entropy T*S    EENTRO =        -0.00663968
  eigenvalues    EBANDS =     -4829.58872762
  atomic energy  EATOM  =     46782.12128830
  Solvation  Ediel_sol  =         0.00000000
  ---------------------------------------------------
  free energy    TOTEN  =       -90.43086451 eV

  energy without entropy =      -90.42422484  energy(sigma->0) =      -90.42754468


--------------------------------------------------------------------------------------------------------




 average (electrostatic) potential at core
  the test charge radii are     0.9911  0.5201
  (the norm of the test charge is              1.0000)
       1 -79.2099       2 -79.3501       3 -79.2099       4 -79.3501       5 -79.0574
       6 -79.3013       7 -79.1253       8 -79.0575       9 -79.3013      10 -79.1253
      11 -78.8412      12 -79.3771      13 -79.2593      14 -79.2910      15 -79.2592
      16 -79.2910      17 -78.8411      18 -79.3771      19 -37.5279      20 -37.5279
      21 -37.5279      22 -37.5279



 E-fermi :  -0.3071     XC(G=0):  -5.3959     alpha+bet : -4.9642

 Fermi energy:        -0.3070660414

 k-point     1 :       0.0000    0.0000    0.0000
  band No.  band energies     occupation 
      1     -24.8811      2.00000
      2     -24.8729      2.00000
      3     -24.8662      2.00000
      4     -24.8547      2.00000
      5     -24.8478      2.00000
      6     -24.8342      2.00000
      7     -24.8324      2.00000
      8     -24.8249      2.00000
      9     -24.8075      2.00000
     10     -24.7791      2.00000
     11     -24.7697      2.00000
     12     -24.7623      2.00000
     13     -24.7480      2.00000
     14     -24.7465      2.00000
     15     -24.7406      2.00000
     16     -24.7356      2.00000
     17     -24.7341      2.00000
     18     -24.7282      2.00000
     19     -24.7237      2.00000
     20     -24.7062      2.00000
     21     -24.7010      2.00000
     22     -24.6983      2.00000
     23     -24.6876      2.00000
     24     -24.6764      2.00000
     25     -24.6750      2.00000
     26     -24.6640      2.00000
     27     -24.6556      2.00000
     28     -24.6469      2.00000
     29     -24.6462      2.00000
     30     -24.6424      2.00000
     31     -24.6407      2.00000
     32     -24.6146      2.00000
     33     -24.6145      2.00000
     34     -24.6122      2.00000
     35     -24.6109      2.00000
     36     -24.6089      2.00000
     37     -24.6061      2.00000
     38     -24.5986      2.00000
     39     -24.5954      2.00000
     40     -24.5815      2.00000
     41     -24.5734      2.00000
     42     -24.5685      2.00000
     43     -24.5668      2.00000
     44     -24.5647      2.00000
     45     -24.5603      2.00000
     46     -24.5504      2.00000
     47     -24.5460      2.00000
     48     -24.5392      2.00000
     49     -24.5364      2.00000
     50     -24.5286      2.00000
     51     -24.5204      2.00000
     52     -24.5098      2.00000
     53     -24.4994      2.00000
     54     -24.4992      2.00000
     55     -24.4979      2.00000
     56     -24.4966      2.00000
     57     -24.4931      2.00000
     58     -24.4918      2.00000
     59     -24.4897      2.00000
     60     -24.4725      2.00000
     61     -24.4692      2.00000
     62     -24.4553      2.00000
     63     -24.4512      2.00000
     64     -24.4488      2.00000
     65     -24.4483      2.00000
     66     -24.4483      2.00000
     67     -24.4431      2.00000
     68     -24.4397      2.00000
     69     -24.4291      2.00000
     70     -24.4144      2.00000
     71     -24.4129      2.00000
     72     -24.4120      2.00000
     73     -24.4099      2.00000
     74     -24.3998      2.00000
     75     -24.3939      2.00000
     76     -24.3920      2.00000
     77     -24.3870      2.00000
     78     -24.3570      2.00000
     79     -24.3267      2.00000
     80     -24.3107      2.00000
     81     -24.1798      2.00000
     82     -24.1762      2.00000
     83     -24.1709      2.00000
     84     -24.1552      2.00000
     85     -24.1486      2.00000
     86     -24.1432      2.00000
     87     -24.1419      2.00000
     88     -24.1302      2.00000
     89     -24.1016      2.00000
     90     -24.0999      2.00000
     91     -12.5944      2.00000
     92     -11.9357      2.00000
     93     -11.2479      2.00000
     94     -10.2348      2.00000
     95      -9.2561      2.00000
     96      -9.0543      2.00000
     97      -8.8973      2.00000
     98      -8.8860      2.00000
     99      -8.8209      2.00000
    100      -8.7473      2.00000
    101      -8.5524      2.00000
    102      -8.4730      2.00000
    103      -8.1772      2.00000
    104      -7.6334      2.00000
    105      -7.4432      2.00000
    106      -6.2075      2.00000
    107      -6.0229      2.00000
    108      -4.2098      2.00000
    109      -3.6737      2.00000
    110      -3.6363      2.00000
    111      -3.6009      2.00000
    112      -3.5812      2.00000
    113      -3.1938      2.00000
    114      -3.1931      2.00000
    115      -3.1622      2.00000
    116      -3.1227      2.00000
    117      -2.8755      2.00000
    118      -2.7660      2.00000
    119      -2.5376      2.00000
    120      -2.3973      2.00000
    121      -2.0557      2.00000
    122      -1.7738      2.00000
    123      -1.3227      2.00000
    124      -1.0520      2.00000
    125      -0.9401      2.00000
    126      -0.5991      2.00000
    127      -0.5011      2.00000
    128      -0.4061      1.99490
    129      -0.0692      0.00000
    130       0.8739      0.00000
    131       0.9562      0.00000
    132       1.1842      0.00000
    133       1.2954      0.00000
    134       1.3023      0.00000
    135       1.5036      0.00000
    136       1.5944      0.00000
    137       1.6860      0.00000
    138       1.7024      0.00000
    139       1.9394      0.00000
    140       2.2340      0.00000
    141       2.3434      0.00000
    142       2.5000      0.00000
    143       2.5341      0.00000
    144       2.6374      0.00000
    145       3.1853      0.00000
    146       3.1858      0.00000
    147       3.4517      0.00000
    148       3.6087      0.00000
    149       3.6643      0.00000
    150       3.7746      0.00000
    151       4.2064      0.00000
    152       4.5066      0.00000
    153       4.5331      0.00000
    154       4.5415      0.00000
    155       4.9525      0.00000
    156       5.0231      0.00000

 k-point     2 :       0.2500    0.0000    0.0000
  band No.  band energies     occupation 
      1     -24.8828      2.00000
      2     -24.8725      2.00000
      3     -24.8707      2.00000
      4     -24.8631      2.00000
      5     -24.8467      2.00000
      6     -24.8344      2.00000
      7     -24.8343      2.00000
      8     -24.8258      2.00000
      9     -24.7895      2.00000
     10     -24.7783      2.00000
     11     -24.7746      2.00000
     12     -24.7586      2.00000
     13     -24.7513      2.00000
     14     -24.7504      2.00000
     15     -24.7404      2.00000
     16     -24.7277      2.00000
     17     -24.7252      2.00000
     18     -24.7245      2.00000
     19     -24.7154      2.00000
     20     -24.7128      2.00000
     21     -24.7032      2.00000
     22     -24.6967      2.00000
     23     -24.6943      2.00000
     24     -24.6797      2.00000
     25     -24.6698      2.00000
     26     -24.6616      2.00000
     27     -24.6579      2.00000
     28     -24.6534      2.00000
     29     -24.6437      2.00000
     30     -24.6432      2.00000
     31     -24.6279      2.00000
     32     -24.6244      2.00000
     33     -24.6198      2.00000
     34     -24.6126      2.00000
     35     -24.6111      2.00000
     36     -24.6047      2.00000
     37     -24.6026      2.00000
     38     -24.5963      2.00000
     39     -24.5952      2.00000
     40     -24.5862      2.00000
     41     -24.5775      2.00000
     42     -24.5754      2.00000
     43     -24.5729      2.00000
     44     -24.5674      2.00000
     45     -24.5576      2.00000
     46     -24.5486      2.00000
     47     -24.5431      2.00000
     48     -24.5365      2.00000
     49     -24.5285      2.00000
     50     -24.5275      2.00000
     51     -24.5227      2.00000
     52     -24.5074      2.00000
     53     -24.5063      2.00000
     54     -24.5018      2.00000
     55     -24.5014      2.00000
     56     -24.4979      2.00000
     57     -24.4968      2.00000
     58     -24.4902      2.00000
     59     -24.4831      2.00000
     60     -24.4697      2.00000
     61     -24.4660      2.00000
     62     -24.4603      2.00000
     63     -24.4540      2.00000
     64     -24.4496      2.00000
     65     -24.4492      2.00000
     66     -24.4486      2.00000
     67     -24.4421      2.00000
     68     -24.4398      2.00000
     69     -24.4291      2.00000
     70     -24.4208      2.00000
     71     -24.4130      2.00000
     72     -24.4121      2.00000
     73     -24.4024      2.00000
     74     -24.3955      2.00000
     75     -24.3911      2.00000
     76     -24.3893      2.00000
     77     -24.3876      2.00000
     78     -24.3640      2.00000
     79     -24.3233      2.00000
     80     -24.3112      2.00000
     81     -24.1837      2.00000
     82     -24.1800      2.00000
     83     -24.1630      2.00000
     84     -24.1510      2.00000
     85     -24.1480      2.00000
     86     -24.1438      2.00000
     87     -24.1424      2.00000
     88     -24.1368      2.00000
     89     -24.1008      2.00000
     90     -24.0989      2.00000
     91     -12.3433      2.00000
     92     -11.7006      2.00000
     93     -11.0367      2.00000
     94     -10.4193      2.00000
     95     -10.0671      2.00000
     96      -9.9833      2.00000
     97      -9.5818      2.00000
     98      -9.1115      2.00000
     99      -8.9561      2.00000
    100      -8.6268      2.00000
    101      -8.1338      2.00000
    102      -7.6563      2.00000
    103      -7.6185      2.00000
    104      -7.1380      2.00000
    105      -6.5812      2.00000
    106      -6.2570      2.00000
    107      -5.8154      2.00000
    108      -4.8033      2.00000
    109      -4.1342      2.00000
    110      -4.0225      2.00000
    111      -3.6779      2.00000
    112      -3.4234      2.00000
    113      -3.4183      2.00000
    114      -3.2582      2.00000
    115      -3.2388      2.00000
    116      -2.8860      2.00000
    117      -2.8604      2.00000
    118      -2.7950      2.00000
    119      -2.6981      2.00000
    120      -2.5767      2.00000
    121      -2.4927      2.00000
    122      -2.3512      2.00000
    123      -1.8964      2.00000
    124      -1.5854      2.00000
    125      -1.1187      2.00000
    126      -0.9280      2.00000
    127      -0.6837      2.00000
    128      -0.3291      1.46647
    129      -0.2324      0.03464
    130       1.2638      0.00000
    131       1.3450      0.00000
    132       1.7056      0.00000
    133       1.7932      0.00000
    134       2.1458      0.00000
    135       2.1701      0.00000
    136       2.1788      0.00000
    137       2.2306      0.00000
    138       2.3290      0.00000
    139       2.7713      0.00000
    140       2.8039      0.00000
    141       2.8159      0.00000
    142       2.8363      0.00000
    143       3.1147      0.00000
    144       3.1467      0.00000
    145       3.3476      0.00000
    146       3.5717      0.00000
    147       3.6075      0.00000
    148       3.7784      0.00000
    149       3.9397      0.00000
    150       4.0765      0.00000
    151       4.5441      0.00000
    152       4.6202      0.00000
    153       4.7704      0.00000
    154       4.8951      0.00000
    155       5.0433      0.00000
    156       5.2205      0.00000

 k-point     3 :       0.0000    0.2500    0.0000
  band No.  band energies     occupation 
      1     -24.8828      2.00000
      2     -24.8725      2.00000
      3     -24.8707      2.00000
      4     -24.8631      2.00000
      5     -24.8467      2.00000
      6     -24.8344      2.00000
      7     -24.8343      2.00000
      8     -24.8258      2.00000
      9     -24.7895      2.00000
     10     -24.7783      2.00000
     11     -24.7746      2.00000
     12     -24.7586      2.00000
     13     -24.7513      2.00000
     14     -24.7504      2.00000
     15     -24.7404      2.00000
     16     -24.7277      2.00000
     17     -24.7252      2.00000
     18     -24.7245      2.00000
     19     -24.7154      2.00000
     20     -24.7128      2.00000
     21     -24.7032      2.00000
     22     -24.6967      2.00000
     23     -24.6943      2.00000
     24     -24.6797      2.00000
     25     -24.6698      2.00000
     26     -24.6616      2.00000
     27     -24.6579      2.00000
     28     -24.6534      2.00000
     29     -24.6437      2.00000
     30     -24.6432      2.00000
     31     -24.6279      2.00000
     32     -24.6244      2.00000
     33     -24.6198      2.00000
     34     -24.6126      2.00000
     35     -24.6111      2.00000
     36     -24.6047      2.00000
     37     -24.6026      2.00000
     38     -24.5963      2.00000
     39     -24.5952      2.00000
     40     -24.5862      2.00000
     41     -24.5775      2.00000
     42     -24.5754      2.00000
     43     -24.5729      2.00000
     44     -24.5674      2.00000
     45     -24.5576      2.00000
     46     -24.5486      2.00000
     47     -24.5431      2.00000
     48     -24.5365      2.00000
     49     -24.5285      2.00000
     50     -24.5275      2.00000
     51     -24.5227      2.00000
     52     -24.5074      2.00000
     53     -24.5063      2.00000
     54     -24.5018      2.00000
     55     -24.5014      2.00000
     56     -24.4979      2.00000
     57     -24.4968      2.00000
     58     -24.4902      2.00000
     59     -24.4831      2.00000
     60     -24.4697      2.00000
     61     -24.4660      2.00000
     62     -24.4603      2.00000
     63     -24.4540      2.00000
     64     -24.4496      2.00000
     65     -24.4492      2.00000
     66     -24.4486      2.00000
     67     -24.4421      2.00000
     68     -24.4398      2.00000
     69     -24.4291      2.00000
     70     -24.4208      2.00000
     71     -24.4130      2.00000
     72     -24.4121      2.00000
     73     -24.4024      2.00000
     74     -24.3955      2.00000
     75     -24.3911      2.00000
     76     -24.3893      2.00000
     77     -24.3876      2.00000
     78     -24.3640      2.00000
     79     -24.3233      2.00000
     80     -24.3112      2.00000
     81     -24.1837      2.00000
     82     -24.1800      2.00000
     83     -24.1630      2.00000
     84     -24.1510      2.00000
     85     -24.1480      2.00000
     86     -24.1438      2.00000
     87     -24.1424      2.00000
     88     -24.1368      2.00000
     89     -24.1008      2.00000
     90     -24.0989      2.00000
     91     -12.3433      2.00000
     92     -11.7006      2.00000
     93     -11.0367      2.00000
     94     -10.4193      2.00000
     95     -10.0671      2.00000
     96      -9.9833      2.00000
     97      -9.5818      2.00000
     98      -9.1115      2.00000
     99      -8.9561      2.00000
    100      -8.6268      2.00000
    101      -8.1338      2.00000
    102      -7.6563      2.00000
    103      -7.6185      2.00000
    104      -7.1380      2.00000
    105      -6.5812      2.00000
    106      -6.2570      2.00000
    107      -5.8154      2.00000
    108      -4.8033      2.00000
    109      -4.1342      2.00000
    110      -4.0225      2.00000
    111      -3.6779      2.00000
    112      -3.4234      2.00000
    113      -3.4183      2.00000
    114      -3.2582      2.00000
    115      -3.2388      2.00000
    116      -2.8860      2.00000
    117      -2.8604      2.00000
    118      -2.7950      2.00000
    119      -2.6981      2.00000
    120      -2.5767      2.00000
    121      -2.4927      2.00000
    122      -2.3512      2.00000
    123      -1.8964      2.00000
    124      -1.5854      2.00000
    125      -1.1187      2.00000
    126      -0.9280      2.00000
    127      -0.6837      2.00000
    128      -0.3291      1.46647
    129      -0.2324      0.03464
    130       1.2638      0.00000
    131       1.3450      0.00000
    132       1.7056      0.00000
    133       1.7932      0.00000
    134       2.1458      0.00000
    135       2.1701      0.00000
    136       2.1788      0.00000
    137       2.2306      0.00000
    138       2.3290      0.00000
    139       2.7713      0.00000
    140       2.8039      0.00000
    141       2.8159      0.00000
    142       2.8363      0.00000
    143       3.1147      0.00000
    144       3.1467      0.00000
    145       3.3476      0.00000
    146       3.5717      0.00000
    147       3.6075      0.00000
    148       3.7784      0.00000
    149       3.9397      0.00000
    150       4.0765      0.00000
    151       4.5441      0.00000
    152       4.6202      0.00000
    153       4.7704      0.00000
    154       4.8951      0.00000
    155       5.0433      0.00000
    156       5.2203      0.00000

 k-point     4 :       0.5000    0.0000    0.0000
  band No.  band energies     occupation 
      1     -24.8804      2.00000
      2     -24.8804      2.00000
      3     -24.8699      2.00000
      4     -24.8699      2.00000
      5     -24.8413      2.00000
      6     -24.8413      2.00000
      7     -24.8306      2.00000
      8     -24.8306      2.00000
      9     -24.7795      2.00000
     10     -24.7795      2.00000
     11     -24.7583      2.00000
     12     -24.7583      2.00000
     13     -24.7466      2.00000
     14     -24.7466      2.00000
     15     -24.7420      2.00000
     16     -24.7420      2.00000
     17     -24.7270      2.00000
     18     -24.7270      2.00000
     19     -24.7070      2.00000
     20     -24.7070      2.00000
     21     -24.7010      2.00000
     22     -24.7010      2.00000
     23     -24.6907      2.00000
     24     -24.6907      2.00000
     25     -24.6640      2.00000
     26     -24.6640      2.00000
     27     -24.6476      2.00000
     28     -24.6476      2.00000
     29     -24.6433      2.00000
     30     -24.6433      2.00000
     31     -24.6337      2.00000
     32     -24.6337      2.00000
     33     -24.6125      2.00000
     34     -24.6125      2.00000
     35     -24.6074      2.00000
     36     -24.6074      2.00000
     37     -24.6057      2.00000
     38     -24.6057      2.00000
     39     -24.5946      2.00000
     40     -24.5946      2.00000
     41     -24.5800      2.00000
     42     -24.5800      2.00000
     43     -24.5645      2.00000
     44     -24.5645      2.00000
     45     -24.5550      2.00000
     46     -24.5550      2.00000
     47     -24.5332      2.00000
     48     -24.5332      2.00000
     49     -24.5311      2.00000
     50     -24.5311      2.00000
     51     -24.5155      2.00000
     52     -24.5155      2.00000
     53     -24.5078      2.00000
     54     -24.5078      2.00000
     55     -24.5003      2.00000
     56     -24.5003      2.00000
     57     -24.4927      2.00000
     58     -24.4926      2.00000
     59     -24.4760      2.00000
     60     -24.4760      2.00000
     61     -24.4640      2.00000
     62     -24.4640      2.00000
     63     -24.4521      2.00000
     64     -24.4520      2.00000
     65     -24.4483      2.00000
     66     -24.4483      2.00000
     67     -24.4404      2.00000
     68     -24.4404      2.00000
     69     -24.4272      2.00000
     70     -24.4271      2.00000
     71     -24.4128      2.00000
     72     -24.4128      2.00000
     73     -24.3949      2.00000
     74     -24.3949      2.00000
     75     -24.3893      2.00000
     76     -24.3893      2.00000
     77     -24.3777      2.00000
     78     -24.3776      2.00000
     79     -24.3161      2.00000
     80     -24.3160      2.00000
     81     -24.1837      2.00000
     82     -24.1837      2.00000
     83     -24.1529      2.00000
     84     -24.1529      2.00000
     85     -24.1466      2.00000
     86     -24.1466      2.00000
     87     -24.1424      2.00000
     88     -24.1424      2.00000
     89     -24.0992      2.00000
     90     -24.0991      2.00000
     91     -11.6025      2.00000
     92     -11.6025      2.00000
     93     -11.0182      2.00000
     94     -11.0182      2.00000
     95     -10.4386      2.00000
     96     -10.4386      2.00000
     97      -9.6267      2.00000
     98      -9.6266      2.00000
     99      -8.7522      2.00000
    100      -8.7521      2.00000
    101      -7.8132      2.00000
    102      -7.8132      2.00000
    103      -6.8667      2.00000
    104      -6.8667      2.00000
    105      -5.8866      2.00000
    106      -5.8866      2.00000
    107      -5.0098      2.00000
    108      -5.0097      2.00000
    109      -4.6141      2.00000
    110      -4.6140      2.00000
    111      -3.9946      2.00000
    112      -3.9946      2.00000
    113      -3.8580      2.00000
    114      -3.8579      2.00000
    115      -3.2253      2.00000
    116      -3.2253      2.00000
    117      -3.0697      2.00000
    118      -3.0696      2.00000
    119      -2.4569      2.00000
    120      -2.4569      2.00000
    121      -2.2576      2.00000
    122      -2.2575      2.00000
    123      -1.7492      2.00000
    124      -1.7492      2.00000
    125      -1.6210      2.00000
    126      -1.6210      2.00000
    127      -0.5978      2.00000
    128      -0.5977      2.00000
    129       0.3800      0.00000
    130       0.3801      0.00000
    131       1.8142      0.00000
    132       1.8142      0.00000
    133       2.4354      0.00000
    134       2.4355      0.00000
    135       2.5009      0.00000
    136       2.5009      0.00000
    137       3.1808      0.00000
    138       3.1808      0.00000
    139       3.2226      0.00000
    140       3.2226      0.00000
    141       3.5070      0.00000
    142       3.5071      0.00000
    143       3.9713      0.00000
    144       3.9713      0.00000
    145       4.6089      0.00000
    146       4.6089      0.00000
    147       4.7879      0.00000
    148       4.7879      0.00000
    149       4.8619      0.00000
    150       4.8619      0.00000
    151       4.9439      0.00000
    152       4.9439      0.00000
    153       5.1502      0.00000
    154       5.1502      0.00000
    155       5.3509      0.00000
    156       5.3556      0.00000

 k-point     5 :       0.0000    0.5000    0.0000
  band No.  band energies     occupation 
      1     -24.8804      2.00000
      2     -24.8804      2.00000
      3     -24.8699      2.00000
      4     -24.8699      2.00000
      5     -24.8413      2.00000
      6     -24.8413      2.00000
      7     -24.8306      2.00000
      8     -24.8306      2.00000
      9     -24.7795      2.00000
     10     -24.7795      2.00000
     11     -24.7583      2.00000
     12     -24.7583      2.00000
     13     -24.7466      2.00000
     14     -24.7466      2.00000
     15     -24.7420      2.00000
     16     -24.7420      2.00000
     17     -24.7270      2.00000
     18     -24.7270      2.00000
     19     -24.7070      2.00000
     20     -24.7070      2.00000
     21     -24.7010      2.00000
     22     -24.7010      2.00000
     23     -24.6907      2.00000
     24     -24.6907      2.00000
     25     -24.6640      2.00000
     26     -24.6640      2.00000
     27     -24.6476      2.00000
     28     -24.6476      2.00000
     29     -24.6433      2.00000
     30     -24.6433      2.00000
     31     -24.6337      2.00000
     32     -24.6337      2.00000
     33     -24.6125      2.00000
     34     -24.6125      2.00000
     35     -24.6074      2.00000
     36     -24.6074      2.00000
     37     -24.6057      2.00000
     38     -24.6057      2.00000
     39     -24.5946      2.00000
     40     -24.5946      2.00000
     41     -24.5800      2.00000
     42     -24.5800      2.00000
     43     -24.5645      2.00000
     44     -24.5645      2.00000
     45     -24.5550      2.00000
     46     -24.5550      2.00000
     47     -24.5332      2.00000
     48     -24.5332      2.00000
     49     -24.5311      2.00000
     50     -24.5311      2.00000
     51     -24.5155      2.00000
     52     -24.5155      2.00000
     53     -24.5078      2.00000
     54     -24.5078      2.00000
     55     -24.5003      2.00000
     56     -24.5003      2.00000
     57     -24.4927      2.00000
     58     -24.4926      2.00000
     59     -24.4760      2.00000
     60     -24.4760      2.00000
     61     -24.4640      2.00000
     62     -24.4640      2.00000
     63     -24.4521      2.00000
     64     -24.4520      2.00000
     65     -24.4484      2.00000
     66     -24.4483      2.00000
     67     -24.4404      2.00000
     68     -24.4404      2.00000
     69     -24.4272      2.00000
     70     -24.4271      2.00000
     71     -24.4128      2.00000
     72     -24.4128      2.00000
     73     -24.3949      2.00000
     74     -24.3949      2.00000
     75     -24.3893      2.00000
     76     -24.3893      2.00000
     77     -24.3777      2.00000
     78     -24.3776      2.00000
     79     -24.3161      2.00000
     80     -24.3160      2.00000
     81     -24.1837      2.00000
     82     -24.1837      2.00000
     83     -24.1529      2.00000
     84     -24.1529      2.00000
     85     -24.1466      2.00000
     86     -24.1466      2.00000
     87     -24.1424      2.00000
     88     -24.1424      2.00000
     89     -24.0992      2.00000
     90     -24.0991      2.00000
     91     -11.6025      2.00000
     92     -11.6025      2.00000
     93     -11.0182      2.00000
     94     -11.0182      2.00000
     95     -10.4386      2.00000
     96     -10.4386      2.00000
     97      -9.6267      2.00000
     98      -9.6267      2.00000
     99      -8.7522      2.00000
    100      -8.7521      2.00000
    101      -7.8132      2.00000
    102      -7.8132      2.00000
    103      -6.8667      2.00000
    104      -6.8666      2.00000
    105      -5.8866      2.00000
    106      -5.8866      2.00000
    107      -5.0098      2.00000
    108      -5.0097      2.00000
    109      -4.6141      2.00000
    110      -4.6141      2.00000
    111      -3.9946      2.00000
    112      -3.9946      2.00000
    113      -3.8580      2.00000
    114      -3.8579      2.00000
    115      -3.2253      2.00000
    116      -3.2253      2.00000
    117      -3.0697      2.00000
    118      -3.0696      2.00000
    119      -2.4569      2.00000
    120      -2.4569      2.00000
    121      -2.2575      2.00000
    122      -2.2575      2.00000
    123      -1.7492      2.00000
    124      -1.7492      2.00000
    125      -1.6210      2.00000
    126      -1.6210      2.00000
    127      -0.5978      2.00000
    128      -0.5976      2.00000
    129       0.3800      0.00000
    130       0.3801      0.00000
    131       1.8142      0.00000
    132       1.8142      0.00000
    133       2.4354      0.00000
    134       2.4355      0.00000
    135       2.5009      0.00000
    136       2.5009      0.00000
    137       3.1808      0.00000
    138       3.1808      0.00000
    139       3.2226      0.00000
    140       3.2226      0.00000
    141       3.5070      0.00000
    142       3.5070      0.00000
    143       3.9713      0.00000
    144       3.9713      0.00000
    145       4.6089      0.00000
    146       4.6089      0.00000
    147       4.7879      0.00000
    148       4.7879      0.00000
    149       4.8619      0.00000
    150       4.8619      0.00000
    151       4.9439      0.00000
    152       4.9439      0.00000
    153       5.1501      0.00000
    154       5.1502      0.00000
    155       5.3504      0.00000
    156       5.3526      0.00000

 k-point     6 :       0.2500    0.2500    0.0000
  band No.  band energies     occupation 
      1     -24.8777      2.00000
      2     -24.8706      2.00000
      3     -24.8696      2.00000
      4     -24.8678      2.00000
      5     -24.8516      2.00000
      6     -24.8402      2.00000
      7     -24.8322      2.00000
      8     -24.8218      2.00000
      9     -24.7901      2.00000
     10     -24.7892      2.00000
     11     -24.7629      2.00000
     12     -24.7571      2.00000
     13     -24.7449      2.00000
     14     -24.7404      2.00000
     15     -24.7340      2.00000
     16     -24.7337      2.00000
     17     -24.7280      2.00000
     18     -24.7210      2.00000
     19     -24.7205      2.00000
     20     -24.7185      2.00000
     21     -24.7024      2.00000
     22     -24.6988      2.00000
     23     -24.6881      2.00000
     24     -24.6850      2.00000
     25     -24.6824      2.00000
     26     -24.6715      2.00000
     27     -24.6548      2.00000
     28     -24.6522      2.00000
     29     -24.6490      2.00000
     30     -24.6315      2.00000
     31     -24.6240      2.00000
     32     -24.6221      2.00000
     33     -24.6124      2.00000
     34     -24.6100      2.00000
     35     -24.6098      2.00000
     36     -24.6049      2.00000
     37     -24.6028      2.00000
     38     -24.6001      2.00000
     39     -24.5918      2.00000
     40     -24.5912      2.00000
     41     -24.5893      2.00000
     42     -24.5707      2.00000
     43     -24.5698      2.00000
     44     -24.5671      2.00000
     45     -24.5657      2.00000
     46     -24.5503      2.00000
     47     -24.5434      2.00000
     48     -24.5285      2.00000
     49     -24.5266      2.00000
     50     -24.5218      2.00000
     51     -24.5200      2.00000
     52     -24.5137      2.00000
     53     -24.5133      2.00000
     54     -24.5068      2.00000
     55     -24.4996      2.00000
     56     -24.4977      2.00000
     57     -24.4935      2.00000
     58     -24.4887      2.00000
     59     -24.4782      2.00000
     60     -24.4768      2.00000
     61     -24.4632      2.00000
     62     -24.4547      2.00000
     63     -24.4514      2.00000
     64     -24.4492      2.00000
     65     -24.4485      2.00000
     66     -24.4483      2.00000
     67     -24.4409      2.00000
     68     -24.4403      2.00000
     69     -24.4333      2.00000
     70     -24.4144      2.00000
     71     -24.4133      2.00000
     72     -24.4122      2.00000
     73     -24.4120      2.00000
     74     -24.3986      2.00000
     75     -24.3898      2.00000
     76     -24.3887      2.00000
     77     -24.3792      2.00000
     78     -24.3762      2.00000
     79     -24.3163      2.00000
     80     -24.3155      2.00000
     81     -24.1740      2.00000
     82     -24.1738      2.00000
     83     -24.1696      2.00000
     84     -24.1534      2.00000
     85     -24.1475      2.00000
     86     -24.1474      2.00000
     87     -24.1438      2.00000
     88     -24.1401      2.00000
     89     -24.1022      2.00000
     90     -24.0958      2.00000
     91     -12.1046      2.00000
     92     -11.4910      2.00000
     93     -10.8720      2.00000
     94     -10.3138      2.00000
     95     -10.3018      2.00000
     96     -10.0042      2.00000
     97      -9.9170      2.00000
     98      -9.8541      2.00000
     99      -9.3259      2.00000
    100      -8.5142      2.00000
    101      -7.8433      2.00000
    102      -7.4240      2.00000
    103      -7.3253      2.00000
    104      -7.0965      2.00000
    105      -6.7343      2.00000
    106      -6.2031      2.00000
    107      -5.6407      2.00000
    108      -5.0224      2.00000
    109      -4.6580      2.00000
    110      -4.0512      2.00000
    111      -3.8690      2.00000
    112      -3.7779      2.00000
    113      -3.6194      2.00000
    114      -3.3691      2.00000
    115      -3.1201      2.00000
    116      -2.9874      2.00000
    117      -2.9512      2.00000
    118      -2.6378      2.00000
    119      -2.3515      2.00000
    120      -2.3456      2.00000
    121      -2.1588      2.00000
    122      -1.9199      2.00000
    123      -1.7163      2.00000
    124      -1.2408      2.00000
    125      -1.1364      2.00000
    126      -0.6684      2.00000
    127      -0.6535      2.00000
    128      -0.5708      2.00000
    129      -0.5020      2.00000
    130       1.1503      0.00000
    131       1.4713      0.00000
    132       1.4910      0.00000
    133       1.7452      0.00000
    134       1.8817      0.00000
    135       1.8926      0.00000
    136       2.1625      0.00000
    137       2.1677      0.00000
    138       2.2421      0.00000
    139       3.0321      0.00000
    140       3.1558      0.00000
    141       3.2034      0.00000
    142       3.2575      0.00000
    143       3.6291      0.00000
    144       3.6323      0.00000
    145       3.7891      0.00000
    146       4.0628      0.00000
    147       4.1860      0.00000
    148       4.4103      0.00000
    149       4.5221      0.00000
    150       4.5646      0.00000
    151       4.7767      0.00000
    152       4.9680      0.00000
    153       4.9734      0.00000
    154       5.1223      0.00000
    155       5.4048      0.00000
    156       5.5413      0.00000

 k-point     7 :      -0.2500    0.2500    0.0000
  band No.  band energies     occupation 
      1     -24.8838      2.00000
      2     -24.8763      2.00000
      3     -24.8672      2.00000
      4     -24.8568      2.00000
      5     -24.8449      2.00000
      6     -24.8371      2.00000
      7     -24.8356      2.00000
      8     -24.8233      2.00000
      9     -24.7859      2.00000
     10     -24.7760      2.00000
     11     -24.7656      2.00000
     12     -24.7620      2.00000
     13     -24.7605      2.00000
     14     -24.7557      2.00000
     15     -24.7427      2.00000
     16     -24.7366      2.00000
     17     -24.7309      2.00000
     18     -24.7268      2.00000
     19     -24.7178      2.00000
     20     -24.7106      2.00000
     21     -24.7032      2.00000
     22     -24.7029      2.00000
     23     -24.6850      2.00000
     24     -24.6800      2.00000
     25     -24.6700      2.00000
     26     -24.6565      2.00000
     27     -24.6521      2.00000
     28     -24.6509      2.00000
     29     -24.6456      2.00000
     30     -24.6394      2.00000
     31     -24.6364      2.00000
     32     -24.6300      2.00000
     33     -24.6235      2.00000
     34     -24.6172      2.00000
     35     -24.6001      2.00000
     36     -24.5995      2.00000
     37     -24.5964      2.00000
     38     -24.5942      2.00000
     39     -24.5891      2.00000
     40     -24.5827      2.00000
     41     -24.5821      2.00000
     42     -24.5775      2.00000
     43     -24.5675      2.00000
     44     -24.5585      2.00000
     45     -24.5520      2.00000
     46     -24.5516      2.00000
     47     -24.5401      2.00000
     48     -24.5370      2.00000
     49     -24.5348      2.00000
     50     -24.5273      2.00000
     51     -24.5268      2.00000
     52     -24.5147      2.00000
     53     -24.5136      2.00000
     54     -24.4993      2.00000
     55     -24.4990      2.00000
     56     -24.4956      2.00000
     57     -24.4924      2.00000
     58     -24.4846      2.00000
     59     -24.4846      2.00000
     60     -24.4740      2.00000
     61     -24.4723      2.00000
     62     -24.4677      2.00000
     63     -24.4572      2.00000
     64     -24.4486      2.00000
     65     -24.4484      2.00000
     66     -24.4459      2.00000
     67     -24.4427      2.00000
     68     -24.4393      2.00000
     69     -24.4306      2.00000
     70     -24.4236      2.00000
     71     -24.4126      2.00000
     72     -24.4123      2.00000
     73     -24.3965      2.00000
     74     -24.3931      2.00000
     75     -24.3926      2.00000
     76     -24.3913      2.00000
     77     -24.3876      2.00000
     78     -24.3592      2.00000
     79     -24.3279      2.00000
     80     -24.3111      2.00000
     81     -24.1872      2.00000
     82     -24.1851      2.00000
     83     -24.1539      2.00000
     84     -24.1498      2.00000
     85     -24.1476      2.00000
     86     -24.1448      2.00000
     87     -24.1432      2.00000
     88     -24.1304      2.00000
     89     -24.1080      2.00000
     90     -24.0983      2.00000
     91     -12.0980      2.00000
     92     -11.4735      2.00000
     93     -10.8443      2.00000
     94     -10.4412      2.00000
     95     -10.3505      2.00000
     96     -10.0681      2.00000
     97      -9.9606      2.00000
     98      -9.7768      2.00000
     99      -9.3032      2.00000
    100      -7.7557      2.00000
    101      -7.6675      2.00000
    102      -7.5354      2.00000
    103      -7.4720      2.00000
    104      -7.1936      2.00000
    105      -6.8371      2.00000
    106      -6.4908      2.00000
    107      -6.3031      2.00000
    108      -5.4147      2.00000
    109      -4.4363      2.00000
    110      -3.8215      2.00000
    111      -3.5953      2.00000
    112      -3.5679      2.00000
    113      -3.4104      2.00000
    114      -3.1521      2.00000
    115      -3.0916      2.00000
    116      -2.9104      2.00000
    117      -2.8440      2.00000
    118      -2.6421      2.00000
    119      -2.3383      2.00000
    120      -2.3375      2.00000
    121      -2.2638      2.00000
    122      -2.2090      2.00000
    123      -1.5630      2.00000
    124      -1.5073      2.00000
    125      -1.0735      2.00000
    126      -0.8972      2.00000
    127      -0.5953      2.00000
    128      -0.1825      0.00043
    129       0.1796      0.00000
    130       0.5477      0.00000
    131       1.3010      0.00000
    132       1.4458      0.00000
    133       1.6746      0.00000
    134       1.8603      0.00000
    135       1.9827      0.00000
    136       1.9891      0.00000
    137       2.1195      0.00000
    138       2.3351      0.00000
    139       2.6304      0.00000
    140       2.7574      0.00000
    141       3.3528      0.00000
    142       3.4102      0.00000
    143       3.5345      0.00000
    144       3.8257      0.00000
    145       3.9018      0.00000
    146       3.9158      0.00000
    147       4.1753      0.00000
    148       4.3555      0.00000
    149       4.3637      0.00000
    150       4.5143      0.00000
    151       4.6878      0.00000
    152       4.9399      0.00000
    153       5.0069      0.00000
    154       5.0683      0.00000
    155       5.2829      0.00000
    156       5.3923      0.00000

 k-point     8 :       0.5000    0.2500    0.0000
  band No.  band energies     occupation 
      1     -24.8772      2.00000
      2     -24.8744      2.00000
      3     -24.8693      2.00000
      4     -24.8636      2.00000
      5     -24.8476      2.00000
      6     -24.8385      2.00000
      7     -24.8367      2.00000
      8     -24.8213      2.00000
      9     -24.7915      2.00000
     10     -24.7703      2.00000
     11     -24.7604      2.00000
     12     -24.7581      2.00000
     13     -24.7554      2.00000
     14     -24.7500      2.00000
     15     -24.7451      2.00000
     16     -24.7363      2.00000
     17     -24.7305      2.00000
     18     -24.7267      2.00000
     19     -24.7198      2.00000
     20     -24.7137      2.00000
     21     -24.7062      2.00000
     22     -24.7052      2.00000
     23     -24.6875      2.00000
     24     -24.6866      2.00000
     25     -24.6803      2.00000
     26     -24.6579      2.00000
     27     -24.6519      2.00000
     28     -24.6507      2.00000
     29     -24.6377      2.00000
     30     -24.6372      2.00000
     31     -24.6318      2.00000
     32     -24.6182      2.00000
     33     -24.6172      2.00000
     34     -24.6121      2.00000
     35     -24.6117      2.00000
     36     -24.6045      2.00000
     37     -24.6016      2.00000
     38     -24.5948      2.00000
     39     -24.5883      2.00000
     40     -24.5853      2.00000
     41     -24.5847      2.00000
     42     -24.5727      2.00000
     43     -24.5683      2.00000
     44     -24.5612      2.00000
     45     -24.5566      2.00000
     46     -24.5510      2.00000
     47     -24.5399      2.00000
     48     -24.5329      2.00000
     49     -24.5303      2.00000
     50     -24.5260      2.00000
     51     -24.5222      2.00000
     52     -24.5211      2.00000
     53     -24.5122      2.00000
     54     -24.5038      2.00000
     55     -24.4993      2.00000
     56     -24.4957      2.00000
     57     -24.4924      2.00000
     58     -24.4894      2.00000
     59     -24.4781      2.00000
     60     -24.4745      2.00000
     61     -24.4654      2.00000
     62     -24.4638      2.00000
     63     -24.4580      2.00000
     64     -24.4521      2.00000
     65     -24.4477      2.00000
     66     -24.4457      2.00000
     67     -24.4412      2.00000
     68     -24.4394      2.00000
     69     -24.4347      2.00000
     70     -24.4168      2.00000
     71     -24.4129      2.00000
     72     -24.4122      2.00000
     73     -24.4067      2.00000
     74     -24.3937      2.00000
     75     -24.3902      2.00000
     76     -24.3884      2.00000
     77     -24.3874      2.00000
     78     -24.3668      2.00000
     79     -24.3247      2.00000
     80     -24.3115      2.00000
     81     -24.1817      2.00000
     82     -24.1801      2.00000
     83     -24.1570      2.00000
     84     -24.1520      2.00000
     85     -24.1478      2.00000
     86     -24.1463      2.00000
     87     -24.1443      2.00000
     88     -24.1338      2.00000
     89     -24.1083      2.00000
     90     -24.0961      2.00000
     91     -11.4083      2.00000
     92     -11.3864      2.00000
     93     -10.9031      2.00000
     94     -10.8484      2.00000
     95     -10.4616      2.00000
     96     -10.3661      2.00000
     97      -9.9535      2.00000
     98      -9.8710      2.00000
     99      -9.5509      2.00000
    100      -8.0271      2.00000
    101      -7.7945      2.00000
    102      -7.4629      2.00000
    103      -7.3448      2.00000
    104      -7.0127      2.00000
    105      -6.6509      2.00000
    106      -6.2496      2.00000
    107      -5.8694      2.00000
    108      -5.5030      2.00000
    109      -5.4039      2.00000
    110      -4.4823      2.00000
    111      -3.8573      2.00000
    112      -3.7170      2.00000
    113      -3.1059      2.00000
    114      -3.0771      2.00000
    115      -2.7250      2.00000
    116      -2.5328      2.00000
    117      -2.4036      2.00000
    118      -2.3688      2.00000
    119      -2.2287      2.00000
    120      -2.1061      2.00000
    121      -2.0489      2.00000
    122      -1.9386      2.00000
    123      -1.7876      2.00000
    124      -1.6635      2.00000
    125      -1.5718      2.00000
    126      -1.2596      2.00000
    127      -0.8858      2.00000
    128      -0.5721      2.00000
    129      -0.1833      0.00046
    130       1.4936      0.00000
    131       1.7320      0.00000
    132       1.8272      0.00000
    133       1.8778      0.00000
    134       1.8985      0.00000
    135       2.5131      0.00000
    136       2.5163      0.00000
    137       2.6613      0.00000
    138       2.8167      0.00000
    139       3.0169      0.00000
    140       3.2919      0.00000
    141       3.5223      0.00000
    142       3.5413      0.00000
    143       3.6223      0.00000
    144       3.8092      0.00000
    145       3.9468      0.00000
    146       3.9881      0.00000
    147       4.1785      0.00000
    148       4.1891      0.00000
    149       4.3318      0.00000
[...]
     34     -24.6047      2.00000
     35     -24.6002      2.00000
     36     -24.5987      2.00000
     37     -24.5900      2.00000
     38     -24.5900      2.00000
     39     -24.5899      2.00000
     40     -24.5859      2.00000
     41     -24.5796      2.00000
     42     -24.5754      2.00000
     43     -24.5710      2.00000
     44     -24.5651      2.00000
     45     -24.5521      2.00000
     46     -24.5509      2.00000
     47     -24.5416      2.00000
     48     -24.5327      2.00000
     49     -24.5312      2.00000
     50     -24.5289      2.00000
     51     -24.5273      2.00000
     52     -24.5256      2.00000
     53     -24.5057      2.00000
     54     -24.5043      2.00000
     55     -24.4973      2.00000
     56     -24.4936      2.00000
     57     -24.4929      2.00000
     58     -24.4834      2.00000
     59     -24.4817      2.00000
     60     -24.4809      2.00000
     61     -24.4716      2.00000
     62     -24.4572      2.00000
     63     -24.4566      2.00000
     64     -24.4504      2.00000
     65     -24.4485      2.00000
     66     -24.4430      2.00000
     67     -24.4410      2.00000
     68     -24.4392      2.00000
     69     -24.4375      2.00000
     70     -24.4199      2.00000
     71     -24.4128      2.00000
     72     -24.4120      2.00000
     73     -24.4095      2.00000
     74     -24.3975      2.00000
     75     -24.3914      2.00000
     76     -24.3906      2.00000
     77     -24.3881      2.00000
     78     -24.3614      2.00000
     79     -24.3291      2.00000
     80     -24.3115      2.00000
     81     -24.1772      2.00000
     82     -24.1772      2.00000
     83     -24.1626      2.00000
     84     -24.1514      2.00000
     85     -24.1464      2.00000
     86     -24.1463      2.00000
     87     -24.1448      2.00000
     88     -24.1276      2.00000
     89     -24.1155      2.00000
     90     -24.0969      2.00000
     91     -10.9475      2.00000
     92     -10.8782      2.00000
     93     -10.8412      2.00000
     94     -10.8302      2.00000
     95     -10.5856      2.00000
     96     -10.4338      2.00000
     97     -10.2998      2.00000
     98     -10.2618      2.00000
     99      -9.8449      2.00000
    100      -7.9645      2.00000
    101      -7.4909      2.00000
    102      -7.3511      2.00000
    103      -7.2785      2.00000
    104      -7.1102      2.00000
    105      -6.8460      2.00000
    106      -6.7302      2.00000
    107      -6.5878      2.00000
    108      -6.2262      2.00000
    109      -5.8747      2.00000
    110      -4.5936      2.00000
    111      -3.4415      2.00000
    112      -3.4169      2.00000
    113      -3.1654      2.00000
    114      -2.6558      2.00000
    115      -2.5786      2.00000
    116      -2.3924      2.00000
    117      -2.2705      2.00000
    118      -2.0143      2.00000
    119      -1.4762      2.00000
    120      -1.4464      2.00000
    121      -1.4457      2.00000
    122      -1.2984      2.00000
    123      -1.1351      2.00000
    124      -1.0444      2.00000
    125      -0.9852      2.00000
    126      -0.9122      2.00000
    127      -0.7780      2.00000
    128      -0.7259      2.00000
    129      -0.4160      1.99793
    130       0.6969      0.00000
    131       1.0190      0.00000
    132       1.1340      0.00000
    133       1.2148      0.00000
    134       1.7756      0.00000
    135       2.0575      0.00000
    136       2.0598      0.00000
    137       2.3770      0.00000
    138       2.5114      0.00000
    139       2.9307      0.00000
    140       3.3013      0.00000
    141       3.4763      0.00000
    142       3.7367      0.00000
    143       3.7667      0.00000
    144       4.0935      0.00000
    145       4.1223      0.00000
    146       4.1535      0.00000
    147       4.1622      0.00000
    148       4.1627      0.00000
    149       4.2366      0.00000
    150       4.3424      0.00000
    151       4.4632      0.00000
    152       4.6057      0.00000
    153       4.8043      0.00000
    154       4.8365      0.00000
    155       4.9015      0.00000
    156       5.1023      0.00000


--------------------------------------------------------------------------------------------------------


 soft charge-density along one line, spin component           1
         0         1         2         3         4         5         6         7         8         9
 total charge-density along one line

 pseudopotential strength for first ion, spin component:           1
-26.674  -0.000   0.014  -0.000   0.000   6.413   0.000  -0.006
 -0.000 -26.684  -0.000  -0.012   0.000   0.000   6.418   0.000
  0.014  -0.000 -26.685  -0.000   0.000  -0.006   0.000   6.418
 -0.000  -0.012  -0.000 -26.684  -0.000   0.000   0.005   0.000
  0.000   0.000   0.000  -0.000 -26.672  -0.000  -0.000  -0.000
  6.413   0.000  -0.006   0.000  -0.000   1.111  -0.000   0.002
  0.000   6.418   0.000   0.005  -0.000  -0.000   1.110  -0.000
 -0.006   0.000   6.418   0.000  -0.000   0.002  -0.000   1.109
  0.000   0.005   0.000   6.418   0.000  -0.000  -0.002  -0.000
 -0.000  -0.000  -0.000   0.000   6.413  -0.000   0.000   0.000
  0.000  -0.000  -0.000  -0.000  -0.000   0.002   0.000   0.002
  0.000  -0.000  -0.000  -0.000  -0.000   0.003   0.000   0.002
  0.000   0.001   0.000   0.001   0.000   0.000   0.000   0.000
  0.001  -0.000   0.001   0.000   0.000  -0.001  -0.000   0.000
 -0.000   0.001  -0.000   0.001   0.000  -0.000  -0.001  -0.000
  0.000   0.001   0.000   0.001   0.000   0.000   0.001   0.000
  0.001  -0.000   0.002   0.000   0.000  -0.002  -0.000   0.001
 -0.000   0.001  -0.000   0.001   0.000  -0.000  -0.002  -0.000
 total augmentation occupancy for first ion, spin component:           1
  2.000   0.000   0.000   0.000   0.000   0.000   0.000   0.000   0.000   0.000   0.000   0.000   0.000   0.000   0.000   0.000
  0.000   2.000   0.000   0.000   0.000   0.000   0.000   0.000   0.000   0.000   0.000   0.000   0.000   0.000   0.000   0.000
  0.000   0.000   2.000   0.000   0.000   0.000   0.000   0.000   0.000   0.000   0.000   0.000   0.000   0.000   0.000   0.000
  0.000   0.000   0.000   2.000   0.000   0.000   0.000   0.000   0.000   0.000   0.000   0.000   0.000   0.000   0.000   0.000
  0.000   0.000   0.000   0.000   2.000   0.000   0.000   0.000   0.000   0.000   0.000   0.000   0.000   0.000   0.000   0.000
  0.000   0.000   0.000   0.000   0.000   0.000   0.000   0.000   0.000   0.000   0.000   0.000   0.000   0.000   0.000   0.000
  0.000   0.000   0.000   0.000   0.000   0.000   0.000   0.000   0.000   0.000   0.000   0.000   0.000   0.000   0.000   0.000
  0.000   0.000   0.000   0.000   0.000   0.000   0.000   0.000   0.000   0.000   0.000   0.000   0.000   0.000   0.000   0.000
  0.000   0.000   0.000   0.000   0.000   0.000   0.000   0.000   0.000   0.000   0.000   0.000   0.000   0.000   0.000   0.000
  0.000   0.000   0.000   0.000   0.000   0.000   0.000   0.000   0.000   0.000   0.000   0.000   0.000   0.000   0.000   0.000
  0.000   0.000   0.000   0.000   0.000   0.000   0.000   0.000   0.000   0.000   2.000   0.000   0.000   0.000   0.000   0.000
  0.000   0.000   0.000   0.000   0.000   0.000   0.000   0.000   0.000   0.000   0.000   0.000   0.000   0.000   0.000   0.000
  0.000   0.000   0.000   0.000   0.000   0.000   0.000   0.000   0.000   0.000   0.000   0.000   0.667   0.000   0.000   0.000
  0.000   0.000   0.000   0.000   0.000   0.000   0.000   0.000   0.000   0.000   0.000   0.000   0.000   0.667   0.000   0.000
  0.000   0.000   0.000   0.000   0.000   0.000   0.000   0.000   0.000   0.000   0.000   0.000   0.000   0.000   0.667   0.000
  0.000   0.000   0.000   0.000   0.000   0.000   0.000   0.000   0.000   0.000   0.000   0.000   0.000   0.000   0.000   0.000
  0.000   0.000   0.000   0.000   0.000   0.000   0.000   0.000   0.000   0.000   0.000   0.000   0.000   0.000   0.000   0.000
  0.000   0.000   0.000   0.000   0.000   0.000   0.000   0.000   0.000   0.000   0.000   0.000   0.000   0.000   0.000   0.000


------------------------ aborting loop because EDIFF is reached ----------------------------------------





 total charge

# of ion       s       p       d       tot
------------------------------------------
    1        1.146   1.193  10.021  12.360
    2        1.126   1.285  10.027  12.438
    3        1.146   1.193  10.021  12.360
    4        1.126   1.285  10.027  12.438
    5        1.267   0.902   9.986  12.156
    6        1.134   1.254  10.022  12.410
    7        1.108   1.449  10.059  12.616
    8        1.267   0.902   9.986  12.156
    9        1.134   1.254  10.022  12.410
   10        1.108   1.449  10.059  12.616
   11        1.147   1.216  10.014  12.376
   12        1.130   1.276  10.027  12.434
   13        1.145   1.205  10.017  12.368
   14        1.119   1.300  10.023  12.442
   15        1.145   1.205  10.017  12.368
   16        1.119   1.300  10.023  12.442
   17        1.147   1.216  10.014  12.376
   18        1.130   1.276  10.027  12.434
   19        0.561   0.018   0.000   0.579
   20        0.561   0.018   0.000   0.579
   21        0.561   0.018   0.000   0.579
   22        0.561   0.018   0.000   0.579
--------------------------------------------------
tot         22.890  22.233 180.393 225.516

    CHARGE:  cpu time      0.1196: real time      0.1196
    FORLOC:  cpu time      0.0029: real time      0.0029
    FORNL :  cpu time      2.4720: real time      2.4721
    STRESS:  cpu time      2.3085: real time      2.3086
    FORCOR:  cpu time      0.0204: real time      0.0204
    FORHAR:  cpu time      0.0071: real time      0.0071
    OFIELD:  cpu time      0.0002: real time      0.0001

  FORCE on cell =-STRESS in cart. coord.  units (eV):
  Direction    XX          YY          ZZ          XY          YZ          ZX
  --------------------------------------------------------------------------------------
  Alpha Z   553.97419   553.97419   553.97419
  Ewald  110337.25184110337.25184************    90.10030     0.00284     0.00044
  Hartree121346.07585121346.07585************    46.82050     0.00609    -0.00093
  E(xc)   -1493.29034 -1493.29034 -1493.32291     0.73203    -0.00000     0.00001
  Local  ************************234417.34410  -137.53120    -0.01130     0.00089
  n-local   508.45723   508.45720   513.04616     6.84101     0.00055    -0.00009
  augment  2265.86793  2265.86791  2267.04356    -0.60173    -0.00013     0.00022
  Kinetic  1338.46458  1338.46458  1338.29380    -2.61290     0.00008    -0.00044
  Fock        0.00000     0.00000     0.00000     0.00000     0.00000     0.00000
  -------------------------------------------------------------------------------------
  Total       7.98216     7.98211     5.10219     3.74802    -0.00187     0.00008
  in kB      14.61794    14.61785     9.34376     6.86385    -0.00343     0.00015
  external pressure =       12.86 kB  Pullay stress =        0.00 kB


 VOLUME and BASIS-vectors are now :
 -----------------------------------------------------------------------------
  energy-cutoff  :      450.00
  volume of cell :      874.87
      direct lattice vectors                 reciprocal lattice vectors
     5.624500000  0.000000000  0.000000000     0.177793582  0.000000000  0.000000000
     0.000000000  5.624500000  0.000000000     0.000000000  0.177793582  0.000000000
     0.000000000  0.000000000 27.655225140     0.000000000  0.000000000  0.036159532

  length of vectors
     5.624500000  5.624500000 27.655225140     0.177793582  0.177793582  0.036159532


 FORCES acting on ions
    electron-ion (+dipol)            ewald-force                    non-local-force                 convergence-correction
 -----------------------------------------------------------------------------------------------
   0.871E-03 -.108E-01 0.244E+04   0.594E-02 0.527E-02 -.244E+04   0.588E-02 -.331E-02 0.112E+01   -.128E-01 0.881E-02 -.363E-01
   0.369E-04 -.248E-04 -.225E+04   0.114E-05 0.220E-05 0.225E+04   0.110E-04 -.821E-05 0.478E+00   -.503E-04 0.312E-04 0.101E+00
   0.190E-02 0.837E-02 0.244E+04   -.181E-02 -.185E-02 -.244E+04   -.266E-03 0.558E-02 0.114E+01   0.250E-03 -.121E-01 -.839E-01
   0.402E-04 0.599E-04 -.225E+04   -.162E-04 -.165E-04 0.225E+04   0.318E-05 0.350E-04 0.477E+00   -.225E-04 -.779E-04 0.102E+00
   -.154E-01 0.275E-03 0.453E+04   0.545E-02 -.402E-02 -.454E+04   -.606E-02 -.628E-02 0.155E+02   0.160E-01 0.103E-01 0.214E-01
   -.747E-03 0.269E-03 0.122E+03   0.471E-03 0.519E-04 -.124E+03   -.425E-04 0.625E-04 0.156E+01   0.292E-03 -.383E-03 -.886E-01
   -.592E-06 -.194E-04 -.447E+04   0.454E-06 -.328E-06 0.447E+04   0.782E-05 0.266E-04 -.166E+01   0.592E-05 0.493E-05 0.467E-01
   0.173E-01 -.158E-01 0.453E+04   -.353E-02 0.489E-02 -.454E+04   0.681E-02 -.690E-02 0.155E+02   -.204E-01 0.177E-01 0.489E-01
   -.782E-03 -.152E-02 0.122E+03   0.690E-04 0.482E-03 -.124E+03   -.106E-03 -.109E-03 0.156E+01   0.818E-03 0.112E-02 -.889E-01
   -.614E-05 -.111E-04 -.447E+04   -.295E-06 0.480E-06 0.447E+04   0.309E-04 0.106E-04 -.166E+01   -.120E-04 0.112E-04 0.467E-01
   -.539E-02 0.131E-01 0.353E+04   -.305E-02 -.190E-02 -.353E+04   -.680E-02 0.886E-02 0.451E+01   0.153E-01 -.200E-01 -.164E+00
   0.102E-02 -.796E-03 -.105E+04   -.104E-03 -.141E-04 0.105E+04   0.112E-03 -.755E-04 0.465E+00   -.105E-02 0.893E-03 -.789E-01
   0.559E-02 0.529E-02 0.129E+04   -.269E-03 0.110E-03 -.129E+04   0.276E-02 0.333E-02 0.162E+01   -.808E-02 -.876E-02 0.745E-02
   -.250E-04 -.124E-04 -.342E+04   -.211E-05 -.890E-06 0.342E+04   0.159E-04 0.130E-04 0.850E-01   0.375E-05 -.316E-05 0.100E+00
   -.934E-02 -.110E-01 0.129E+04   -.121E-02 -.956E-03 -.129E+04   -.786E-02 -.923E-02 0.162E+01   0.184E-01 0.213E-01 0.832E-02
   -.127E-04 -.860E-05 -.342E+04   0.359E-05 0.243E-05 0.342E+04   -.103E-04 -.290E-05 0.850E-01   0.235E-04 0.111E-04 0.100E+00
   0.180E-02 -.683E-02 0.353E+04   -.196E-02 -.197E-02 -.353E+04   -.391E-02 -.687E-02 0.451E+01   0.420E-02 0.157E-01 -.147E+00
   -.721E-03 0.115E-02 -.105E+04   0.165E-04 -.826E-04 0.105E+04   -.902E-04 0.977E-04 0.465E+00   0.798E-03 -.118E-02 -.794E-01
   0.356E+02 0.356E+02 -.369E+03   -.374E+02 -.374E+02 0.371E+03   0.157E+01 0.157E+01 -.164E+01   -.785E-04 -.789E-04 0.244E-02
   -.356E+02 -.356E+02 -.369E+03   0.374E+02 0.374E+02 0.371E+03   -.157E+01 -.157E+01 -.164E+01   0.787E-04 0.782E-04 0.244E-02
   0.356E+02 0.356E+02 -.369E+03   -.374E+02 -.374E+02 0.371E+03   0.157E+01 0.157E+01 -.164E+01   -.791E-04 -.786E-04 0.244E-02
   -.356E+02 -.356E+02 -.369E+03   0.374E+02 0.374E+02 0.371E+03   -.157E+01 -.157E+01 -.164E+01   0.788E-04 0.785E-04 0.244E-02
 -----------------------------------------------------------------------------------------------
   -.390E-02 -.183E-01 -.407E+02   0.199E-12 0.355E-13 0.171E-12   -.951E-02 -.148E-01 0.409E+02   0.137E-01 0.333E-01 -.174E+00


 POSITION                                       TOTAL-FORCE (eV/Angst)
 -----------------------------------------------------------------------------------
      5.62450      2.81225     10.14466        -0.000090     -0.000022      0.009353
      0.00000      2.81225     15.93675        -0.000017     -0.000009      0.027560
      2.81225      5.62450     10.14465         0.000063     -0.000028      0.009293
      2.81225      0.00000     15.93675        -0.000011     -0.000009      0.027543
      5.62445      0.00002      7.13732        -0.000068      0.000280      0.007659
      0.00000      0.00000     13.12450        -0.000041     -0.000009     -0.580381
      0.00000      0.00000     18.74900        -0.000002      0.000002     -0.669004
      2.81228      2.81220      7.13733         0.000204     -0.000132      0.007928
      2.81225      2.81225     13.12450        -0.000016     -0.000038     -0.580377
      2.81225      2.81225     18.74900        -0.000003      0.000001     -0.669005
      1.40611      1.40611      8.68989        -0.000006     -0.000030      0.022051
      1.40613      1.40613     14.53062        -0.000030     -0.000003      0.061760
      1.40612      4.21837     11.64925        -0.000014     -0.000038     -0.003354
      1.40613      4.21837     17.34287        -0.000023     -0.000013      0.212274
      4.21837      1.40612     11.64925         0.000026      0.000067     -0.003328
      4.21837      1.40613     17.34287        -0.000011     -0.000008      0.212273
      4.21837      4.21836      8.68990         0.000111      0.000047      0.021995
      4.21837      4.21837     14.53062        -0.000012     -0.000021      0.061765
      4.75847      4.75847     19.61503        -0.206381     -0.206376      0.455999
      0.86603      0.86603     19.61503         0.206350      0.206358      0.456000
      1.94622      1.94622     19.61503        -0.206381     -0.206375      0.455998
      3.67828      3.67828     19.61503         0.206352      0.206356      0.455999
 -----------------------------------------------------------------------------------
    total drift:                                0.000335      0.000215      0.003085


--------------------------------------------------------------------------------------------------------



  FREE ENERGIE OF THE ION-ELECTRON SYSTEM (eV)
  ---------------------------------------------------
  free  energy   TOTEN  =       -90.43086451 eV

  energy  without entropy=      -90.42422484  energy(sigma->0) =      -90.42754468



--------------------------------------------------------------------------------------------------------


    POTLOK:  cpu time      0.0447: real time      0.0447


--------------------------------------------------------------------------------------------------------


     LOOP+:  cpu time     17.9128: real time     17.9141
    4ORBIT:  cpu time      0.0000: real time      0.0000



 total charge

# of ion       s       p       d       tot
------------------------------------------
    1        1.146   1.193  10.021  12.360
    2        1.126   1.285  10.027  12.438
    3        1.146   1.193  10.021  12.360
    4        1.126   1.285  10.027  12.438
    5        1.267   0.902   9.986  12.156
    6        1.134   1.254  10.022  12.410
    7        1.108   1.449  10.059  12.616
    8        1.267   0.902   9.986  12.156
    9        1.134   1.254  10.022  12.410
   10        1.108   1.449  10.059  12.616
   11        1.147   1.216  10.014  12.376
   12        1.130   1.276  10.027  12.434
   13        1.145   1.205  10.017  12.368
   14        1.119   1.300  10.023  12.442
   15        1.145   1.205  10.017  12.368
   16        1.119   1.300  10.023  12.442
   17        1.147   1.216  10.014  12.376
   18        1.130   1.276  10.027  12.434
   19        0.561   0.018   0.000   0.579
   20        0.561   0.018   0.000   0.579
   21        0.561   0.018   0.000   0.579
   22        0.561   0.018   0.000   0.579
--------------------------------------------------
tot         22.890  22.233 180.393 225.516


 total amount of memory used by VASP MPI-rank0    61140. kBytes
=======================================================================

   base      :      30000. kBytes
   nonl-proj :       7718. kBytes
   fftplans  :       5488. kBytes
   grid      :       2638. kBytes
   one-center:         46. kBytes
   wavefun   :      15250. kBytes

  
  
 General timing and accounting informations for this job:
 ========================================================
  
                  Total CPU time used (sec):       23.361
                            User time (sec):       22.324
                          System time (sec):        1.037
                         Elapsed time (sec):       23.604
  
                   Maximum memory used (kb):       89888.
                   Average memory used (kb):          N/A
  
                          Minor page faults:        70784
                          Major page faults:            9
                 Voluntary context switches:         1592
