PROCAR lm decomposed
# of k-points:   10         # of bands:  156         # of ions:   22

 k-point     1 :    0.00000000 0.00000000 0.00000000     weight = 0.06250000

band     1 # energy  -24.88110626 # occ.  2.00000000

ion      s     py     pz     px    dxy    dyz    dz2    dxz  x2-y2    tot
    1  0.000  0.000  0.000  0.000  0.000  0.000  0.000  0.000  0.000  0.000
    2  0.000  0.000  0.000  0.000  0.000  0.070  0.000  0.070  0.000  0.140
    3  0.000  0.000  0.000  0.000  0.000  0.000  0.000  0.000  0.000  0.000
    4  0.000  0.000  0.000  0.000  0.000  0.070  0.000  0.070  0.000  0.140
    5  0.000  0.000  0.000  0.000  0.000  0.000  0.000  0.000  0.000  0.000
    6  0.000  0.000  0.000  0.000  0.000  0.040  0.000  0.040  0.000  0.080
    7  0.000  0.000  0.000  0.000  0.000  0.000  0.000  0.000  0.000  0.000
    8  0.000  0.000  0.000  0.000  0.000  0.000  0.000  0.000  0.000  0.000
    9  0.000  0.000  0.000  0.000  0.000  0.040  0.000  0.040  0.000  0.080
   10  0.000  0.000  0.000  0.000  0.000  0.000  0.000  0.000  0.000  0.000
   11  0.000  0.000  0.000  0.000  0.000  0.000  0.000  0.000  0.000  0.000
   12  0.000  0.000  0.000  0.000  0.269  0.000  0.000  0.000  0.000  0.269
   13  0.000  0.000  0.000  0.000  0.000  0.000  0.000  0.000  0.002  0.002
   14  0.000  0.000  0.000  0.000  0.000  0.000  0.000  0.000  0.006  0.006
   15  0.000  0.000  0.000  0.000  0.000  0.000  0.000  0.000  0.002  0.002
   16  0.000  0.000  0.000  0.000  0.000  0.000  0.000  0.000  0.006  0.006
   17  0.000  0.000  0.000  0.000  0.000  0.000  0.000  0.000  0.000  0.000
   18  0.000  0.000  0.000  0.000  0.269  0.000  0.000  0.000  0.000  0.269
   19  0.000  0.000  0.000  0.000  0.000  0.000  0.000  0.000  0.000  0.000
   20  0.000  0.000  0.000  0.000  0.000  0.000  0.000  0.000  0.000  0.000
   21  0.000  0.000  0.000  0.000  0.000  0.000  0.000  0.000  0.000  0.000
   22  0.000  0.000  0.000  0.000  0.000  0.000  0.000  0.000  0.000  0.000
tot    0.000  0.000  0.000  0.000  0.537  0.220  0.000  0.220  0.015  0.993

band     2 # energy  -24.87289632 # occ.  2.00000000

ion      s     py     pz     px    dxy    dyz    dz2    dxz  x2-y2    tot
    1  0.000  0.000  0.000  0.000  0.000  0.000  0.000  0.000  0.000  0.000
    2  0.000  0.000  0.000  0.000  0.233  0.000  0.001  0.000  0.000  0.233
    3  0.000  0.000  0.000  0.000  0.000  0.000  0.000  0.000  0.000  0.000
    4  0.000  0.000  0.000  0.000  0.233  0.000  0.001  0.000  0.000  0.233
    5  0.000  0.000  0.000  0.000  0.000  0.000  0.000  0.000  0.000  0.000
    6  0.000  0.000  0.000  0.000  0.000  0.000  0.000  0.000  0.008  0.008
    7  0.000  0.000  0.000  0.000  0.000  0.000  0.000  0.000  0.001  0.001
    8  0.000  0.000  0.000  0.000  0.000  0.000  0.000  0.000  0.000  0.000
    9  0.000  0.000  0.000  0.000  0.000  0.000  0.000  0.000  0.008  0.008
   10  0.000  0.000  0.000  0.000  0.000  0.000  0.000  0.000  0.001  0.001
   11  0.000  0.000  0.000  0.000  0.000  0.000  0.000  0.000  0.000  0.000
   12  0.000  0.000  0.000  0.000  0.000  0.093  0.000  0.093  0.000  0.186
   13  0.000  0.000  0.000  0.000  0.000  0.000  0.000  0.000  0.000  0.000
   14  0.000  0.000  0.000  0.000  0.000  0.034  0.000  0.034  0.000  0.068
   15  0.000  0.000  0.000  0.000  0.000  0.000  0.000  0.000  0.000  0.000
   16  0.000  0.000  0.000  0.000  0.000  0.034  0.000  0.034  0.000  0.068
   17  0.000  0.000  0.000  0.000  0.000  0.000  0.000  0.000  0.000  0.000
   18  0.000  0.000  0.000  0.000  0.000  0.093  0.000  0.093  0.000  0.186
   19  0.000  0.000  0.000  0.000  0.000  0.000  0.000  0.000  0.000  0.000
   20  0.000  0.000  0.000  0.000  0.000  0.000  0.000  0.000  0.000  0.000
   21  0.000  0.000  0.000  0.000  0.000  0.000  0.000  0.000  0.000  0.000
   22  0.000  0.000  0.000  0.000  0.000  0.000  0.000  0.000  0.000  0.000
tot    0.000  0.000  0.000  0.000  0.465  0.254  0.001  0.254  0.019  0.993

band     3 # energy  -24.86622142 # occ.  2.00000000

ion      s     py     pz     px    dxy    dyz    dz2    dxz  x2-y2    tot
    1  0.000  0.000  0.000  0.000  0.000  0.000  0.000  0.000  0.000  0.000
    2  0.000  0.000  0.000  0.000  0.000  0.113  0.000  0.113  0.000  0.227
    3  0.000  0.000  0.000  0.000  0.000  0.000  0.000  0.000  0.000  0.000
    4  0.000  0.000  0.000  0.000  0.000  0.113  0.000  0.113  0.000  0.227
    5  0.000  0.000  0.000  0.000  0.000  0.000  0.000  0.000  0.000  0.000
    6  0.000  0.000  0.000  0.000  0.000  0.002  0.000  0.002  0.000  0.004
    7  0.000  0.000  0.000  0.000  0.000  0.000  0.000  0.000  0.000  0.000
    8  0.000  0.000  0.000  0.000  0.000  0.000  0.000  0.000  0.000  0.000
    9  0.000  0.000  0.000  0.000  0.000  0.002  0.000  0.002  0.000  0.004
   10  0.000  0.000  0.000  0.000  0.000  0.000  0.000  0.000  0.000  0.000
   11  0.000  0.000  0.000  0.000  0.000  0.000  0.000  0.000  0.000  0.000
   12  0.000  0.000  0.000  0.000  0.000  0.131  0.000  0.131  0.000  0.261
   13  0.000  0.000  0.000  0.000  0.000  0.000  0.000  0.000  0.000  0.001
   14  0.000  0.000  0.000  0.000  0.000  0.002  0.000  0.002  0.000  0.003
   15  0.000  0.000  0.000  0.000  0.000  0.000  0.000  0.000  0.000  0.001
   16  0.000  0.000  0.000  0.000  0.000  0.002  0.000  0.002  0.000  0.003
   17  0.000  0.000  0.000  0.000  0.000  0.000  0.000  0.000  0.000  0.000
   18  0.000  0.000  0.000  0.000  0.000  0.131  0.000  0.131  0.000  0.262
   19  0.000  0.000  0.000  0.000  0.000  0.000  0.000  0.000  0.000  0.000
   20  0.000  0.000  0.000  0.000  0.000  0.000  0.000  0.000  0.000  0.000
   21  0.000  0.000  0.000  0.000  0.000  0.000  0.000  0.000  0.000  0.000
   22  0.000  0.000  0.000  0.000  0.000  0.000  0.000  0.000  0.000  0.000
tot    0.000  0.000  0.000  0.000  0.000  0.497  0.000  0.496  0.000  0.994

band     4 # energy  -24.85470206 # occ.  2.00000000

ion      s     py     pz     px    dxy    dyz    dz2    dxz  x2-y2    tot
    1  0.000  0.000  0.000  0.000  0.000  0.000  0.000  0.000  0.000  0.000
    2  0.000  0.000  0.000  0.000  0.000  0.028  0.000  0.028  0.000  0.056
    3  0.000  0.000  0.000  0.000  0.000  0.000  0.000  0.000  0.000  0.000
    4  0.000  0.000  0.000  0.000  0.000  0.028  0.000  0.028  0.000  0.056
    5  0.000  0.000  0.000  0.000  0.000  0.000  0.000  0.000  0.000  0.000
    6  0.000  0.000  0.000  0.000  0.000  0.074  0.000  0.074  0.000  0.149
    7  0.000  0.000  0.000  0.000  0.000  0.000  0.000  0.000  0.000  0.000
    8  0.000  0.000  0.000  0.000  0.000  0.000  0.000  0.000  0.000  0.000
    9  0.000  0.000  0.000  0.000  0.000  0.074  0.000  0.074  0.000  0.149
   10  0.000  0.000  0.000  0.000  0.000  0.000  0.000  0.000  0.000  0.000
   11  0.000  0.000  0.000  0.000  0.000  0.000  0.000  0.000  0.000  0.000
   12  0.000  0.000  0.000  0.000  0.000  0.131  0.000  0.131  0.000  0.261
   13  0.000  0.000  0.000  0.000  0.000  0.001  0.000  0.001  0.000  0.001
   14  0.000  0.000  0.000  0.000  0.000  0.014  0.000  0.014  0.000  0.029
   15  0.000  0.000  0.000  0.000  0.000  0.001  0.000  0.001  0.000  0.001
   16  0.000  0.000  0.000  0.000  0.000  0.014  0.000  0.014  0.000  0.029
   17  0.000  0.000  0.000  0.000  0.000  0.000  0.000  0.000  0.000  0.000
   18  0.000  0.000  0.000  0.000  0.000  0.130  0.000  0.131  0.000  0.261
   19  0.000  0.000  0.000  0.000  0.000  0.000  0.000  0.000  0.000  0.000
   20  0.000  0.000  0.000  0.000  0.000  0.000  0.000  0.000  0.000  0.000
   21  0.000  0.000  0.000  0.000  0.000  0.000  0.000  0.000  0.000  0.000
   22  0.000  0.000  0.000  0.000  0.000  0.000  0.000  0.000  0.000  0.000
tot    0.000  0.000  0.000  0.000  0.000  0.497  0.000  0.497  0.000  0.994

band     5 # energy  -24.84779769 # occ.  2.00000000

ion      s     py     pz     px    dxy    dyz    dz2    dxz  x2-y2    tot
    1  0.000  0.000  0.000  0.000  0.000  0.000  0.000  0.000  0.000  0.000
    2  0.000  0.000  0.000  0.000  0.000  0.000  0.000  0.000  0.031  0.031
    3  0.000  0.000  0.000  0.000  0.000  0.000  0.000  0.000  0.000  0.000
    4  0.000  0.000  0.000  0.000  0.000  0.000  0.000  0.000  0.031  0.031
    5  0.000  0.000  0.000  0.000  0.000  0.000  0.000  0.000  0.000  0.000
    6  0.000  0.000  0.000  0.000  0.160  0.000  0.004  0.000  0.000  0.164
    7  0.000  0.000  0.000  0.000  0.001  0.000  0.000  0.000  0.000  0.001
    8  0.000  0.000  0.000  0.000  0.000  0.000  0.000  0.000  0.000  0.000
    9  0.000  0.000  0.000  0.000  0.160  0.000  0.004  0.000  0.000  0.164
   10  0.000  0.000  0.000  0.000  0.001  0.000  0.000  0.000  0.000  0.001
   11  0.000  0.000  0.000  0.000  0.000  0.000  0.000  0.000  0.000  0.000
   12  0.000  0.000  0.000  0.000  0.000  0.136  0.000  0.136  0.000  0.273
   13  0.000  0.000  0.000  0.000  0.000  0.012  0.000  0.012  0.000  0.024
   14  0.000  0.000  0.000  0.000  0.000  0.002  0.000  0.002  0.000  0.004
   15  0.000  0.000  0.000  0.000  0.000  0.012  0.000  0.012  0.000  0.024
   16  0.000  0.000  0.000  0.000  0.000  0.002  0.000  0.002  0.000  0.004
   17  0.000  0.000  0.000  0.000  0.000  0.000  0.000  0.000  0.000  0.000
   18  0.000  0.000  0.000  0.000  0.000  0.136  0.000  0.136  0.000  0.273
   19  0.000  0.000  0.000  0.000  0.000  0.000  0.000  0.000  0.000  0.000
   20  0.000  0.000  0.000  0.000  0.000  0.000  0.000  0.000  0.000  0.000
   21  0.000  0.000  0.000  0.000  0.000  0.000  0.000  0.000  0.000  0.000
   22  0.000  0.000  0.000  0.000  0.000  0.000  0.000  0.000  0.000  0.000
tot    0.000  0.000  0.000  0.000  0.322  0.301  0.008  0.301  0.062  0.993

band     6 # energy  -24.83420556 # occ.  2.00000000

ion      s     py     pz     px    dxy    dyz    dz2    dxz  x2-y2    tot
    1  0.000  0.000  0.000  0.000  0.000  0.000  0.000  0.000  0.000  0.000
    2  0.000  0.000  0.000  0.000  0.000  0.120  0.000  0.120  0.000  0.241
    3  0.000  0.000  0.000  0.000  0.000  0.000  0.000  0.000  0.000  0.000
    4  0.000  0.000  0.000  0.000  0.000  0.120  0.000  0.120  0.000  0.241
    5  0.000  0.000  0.000  0.000  0.000  0.000  0.000  0.000  0.000  0.000
    6  0.000  0.000  0.000  0.000  0.000  0.005  0.000  0.005  0.000  0.010
    7  0.000  0.000  0.000  0.000  0.000  0.009  0.000  0.009  0.000  0.018
    8  0.000  0.000  0.000  0.000  0.000  0.000  0.000  0.000  0.000  0.000
    9  0.000  0.000  0.000  0.000  0.000  0.005  0.000  0.005  0.000  0.010
   10  0.000  0.000  0.000  0.000  0.000  0.009  0.000  0.009  0.000  0.018
   11  0.000  0.000  0.000  0.000  0.000  0.000  0.000  0.000  0.000  0.000
   12  0.000  0.000  0.000  0.000  0.000  0.000  0.000  0.000  0.055  0.055
   13  0.000  0.000  0.000  0.000  0.003  0.000  0.000  0.000  0.000  0.003
   14  0.000  0.000  0.000  0.000  0.166  0.000  0.004  0.000  0.000  0.169
   15  0.000  0.000  0.000  0.000  0.003  0.000  0.000  0.000  0.000  0.003
   16  0.000  0.000  0.000  0.000  0.166  0.000  0.004  0.000  0.000  0.169
   17  0.000  0.000  0.000  0.000  0.000  0.000  0.000  0.000  0.000  0.000
   18  0.000  0.000  0.000  0.000  0.000  0.000  0.000  0.000  0.055  0.055
   19  0.000  0.000  0.000  0.000  0.000  0.000  0.000  0.000  0.000  0.000
   20  0.000  0.000  0.000  0.000  0.000  0.000  0.000  0.000  0.000  0.000
   21  0.000  0.000  0.000  0.000  0.000  0.000  0.000  0.000  0.000  0.000
   22  0.000  0.000  0.000  0.000  0.000  0.000  0.000  0.000  0.000  0.000
tot    0.000  0.000  0.000  0.000  0.336  0.269  0.007  0.269  0.111  0.993

band     7 # energy  -24.83236249 # occ.  2.00000000

ion      s     py     pz     px    dxy    dyz    dz2    dxz  x2-y2    tot
    1  0.000  0.000  0.000  0.000  0.000  0.000  0.000  0.000  0.000  0.000
    2  0.000  0.000  0.000  0.000  0.153  0.000  0.010  0.000  0.000  0.163
    3  0.000  0.000  0.000  0.000  0.000  0.000  0.000  0.000  0.000  0.000
    4  0.000  0.000  0.000  0.000  0.153  0.000  0.010  0.000  0.000  0.163
    5  0.000  0.000  0.000  0.000  0.000  0.000  0.000  0.000  0.000  0.000
    6  0.000  0.000  0.000  0.000  0.029  0.000  0.019  0.000  0.000  0.048
    7  0.000  0.000  0.000  0.000  0.000  0.000  0.001  0.000  0.000  0.001
    8  0.000  0.000  0.000  0.000  0.000  0.000  0.000  0.000  0.000  0.000
    9  0.000  0.000  0.000  0.000  0.029  0.000  0.019  0.000  0.000  0.048
   10  0.000  0.000  0.000  0.000  0.000  0.000  0.001  0.000  0.000  0.001
   11  0.000  0.000  0.000  0.000  0.000  0.000  0.000  0.000  0.000  0.000
   12  0.000  0.000  0.000  0.000  0.243  0.000  0.011  0.000  0.000  0.255
   13  0.000  0.000  0.000  0.000  0.000  0.000  0.003  0.000  0.000  0.004
   14  0.000  0.000  0.000  0.000  0.014  0.000  0.011  0.000  0.000  0.026
   15  0.000  0.000  0.000  0.000  0.000  0.000  0.003  0.000  0.000  0.004
   16  0.000  0.000  0.000  0.000  0.014  0.000  0.011  0.000  0.000  0.026
   17  0.000  0.000  0.000  0.000  0.000  0.000  0.000  0.000  0.000  0.000
   18  0.000  0.000  0.000  0.000  0.243  0.000  0.011  0.000  0.000  0.255
   19  0.000  0.000  0.000  0.000  0.000  0.000  0.000  0.000  0.000  0.000
   20  0.000  0.000  0.000  0.000  0.000  0.000  0.000  0.000  0.000  0.000
   21  0.000  0.000  0.000  0.000  0.000  0.000  0.000  0.000  0.000  0.000
   22  0.000  0.000  0.000  0.000  0.000  0.000  0.000  0.000  0.000  0.000
tot    0.000  0.000  0.001  0.000  0.880  0.000  0.112  0.000  0.000  0.993

band     8 # energy  -24.82486003 # occ.  2.00000000

ion      s     py     pz     px    dxy    dyz    dz2    dxz  x2-y2    tot
    1  0.000  0.000  0.000  0.000  0.000  0.000  0.000  0.000  0.000  0.000
    2  0.000  0.000  0.000  0.000  0.000  0.117  0.000  0.117  0.000  0.234
    3  0.000  0.000  0.000  0.000  0.000  0.000  0.000  0.000  0.000  0.000
    4  0.000  0.000  0.000  0.000  0.000  0.117  0.000  0.117  0.000  0.233
    5  0.000  0.000  0.000  0.000  0.000  0.000  0.000  0.000  0.000  0.000
    6  0.000  0.000  0.000  0.000  0.000  0.020  0.000  0.020  0.000  0.039
    7  0.000  0.000  0.000  0.000  0.000  0.000  0.000  0.000  0.000  0.001
    8  0.000  0.000  0.000  0.000  0.000  0.000  0.000  0.000  0.000  0.000
    9  0.000  0.000  0.000  0.000  0.000  0.020  0.000  0.020  0.000  0.039
   10  0.000  0.000  0.000  0.000  0.000  0.000  0.000  0.000  0.000  0.001
   11  0.000  0.000  0.000  0.000  0.000  0.000  0.000  0.000  0.000  0.000
   12  0.000  0.000  0.000  0.000  0.000  0.023  0.000  0.023  0.000  0.045
   13  0.000  0.000  0.000  0.000  0.000  0.000  0.000  0.000  0.000  0.001
   14  0.000  0.000  0.000  0.000  0.000  0.089  0.000  0.089  0.000  0.178
   15  0.000  0.000  0.000  0.000  0.000  0.000  0.000  0.000  0.000  0.001
   16  0.000  0.000  0.000  0.000  0.000  0.089  0.000  0.089  0.000  0.178
   17  0.000  0.000  0.000  0.000  0.000  0.000  0.000  0.000  0.000  0.000
   18  0.000  0.000  0.000  0.000  0.000  0.023  0.000  0.023  0.000  0.045
   19  0.000  0.000  0.000  0.000  0.000  0.000  0.000  0.000  0.000  0.000
   20  0.000  0.000  0.000  0.000  0.000  0.000  0.000  0.000  0.000  0.000
   21  0.000  0.000  0.000  0.000  0.000  0.000  0.000  0.000  0.000  0.000
   22  0.000  0.000  0.000  0.000  0.000  0.000  0.000  0.000  0.000  0.000
tot    0.000  0.001  0.000  0.001  0.000  0.496  0.000  0.496  0.000  0.994

band     9 # energy  -24.80752117 # occ.  2.00000000

ion      s     py     pz     px    dxy    dyz    dz2    dxz  x2-y2    tot
    1  0.000  0.000  0.000  0.000  0.000  0.000  0.000  0.000  0.000  0.000
    2  0.000  0.000  0.000  0.000  0.033  0.000  0.127  0.000  0.000  0.160
    3  0.000  0.000  0.000  0.000  0.000  0.000  0.000  0.000  0.000  0.000
    4  0.000  0.000  0.000  0.000  0.033  0.000  0.127  0.000  0.000  0.160
    5  0.000  0.000  0.000  0.000  0.000  0.000  0.000  0.000  0.000  0.000
    6  0.000  0.000  0.000  0.000  0.049  0.000  0.016  0.000  0.000  0.065
    7  0.000  0.000  0.000  0.000  0.003  0.000  0.000  0.000  0.000  0.003
    8  0.000  0.000  0.000  0.000  0.000  0.000  0.000  0.000  0.000  0.000
    9  0.000  0.000  0.000  0.000  0.049  0.000  0.016  0.000  0.000  0.065
   10  0.000  0.000  0.000  0.000  0.003  0.000  0.000  0.000  0.000  0.003
   11  0.000  0.000  0.000  0.000  0.000  0.000  0.000  0.000  0.000  0.000
   12  0.000  0.000  0.000  0.000  0.022  0.000  0.187  0.000  0.000  0.210
   13  0.000  0.000  0.000  0.000  0.008  0.000  0.000  0.000  0.000  0.008
   14  0.000  0.000  0.000  0.000  0.041  0.000  0.008  0.000  0.000  0.049
   15  0.000  0.000  0.000  0.000  0.008  0.000  0.000  0.000  0.000  0.008
   16  0.000  0.000  0.000  0.000  0.041  0.000  0.008  0.000  0.000  0.049
   17  0.000  0.000  0.000  0.000  0.000  0.000  0.000  0.000  0.000  0.000
   18  0.000  0.000  0.000  0.000  0.022  0.000  0.187  0.000  0.000  0.210
   19  0.000  0.000  0.000  0.000  0.000  0.000  0.000  0.000  0.000  0.000
   20  0.000  0.000  0.000  0.000  0.000  0.000  0.000  0.000  0.000  0.000
   21  0.000  0.000  0.000  0.000  0.000  0.000  0.000  0.000  0.000  0.000
   22  0.000  0.000  0.000  0.000  0.000  0.000  0.000  0.000  0.000  0.000
tot    0.000  0.000  0.000  0.000  0.316  0.000  0.676  0.000  0.000  0.992

band    10 # energy  -24.77910881 # occ.  2.00000000

ion      s     py     pz     px    dxy    dyz    dz2    dxz  x2-y2    tot
    1  0.000  0.000  0.000  0.000  0.000  0.000  0.000  0.000  0.000  0.000
    2  0.000  0.000  0.000  0.000  0.000  0.000  0.000  0.000  0.158  0.158
    3  0.000  0.000  0.000  0.000  0.000  0.000  0.000  0.000  0.000  0.000
    4  0.000  0.000  0.000  0.000  0.000  0.000  0.000  0.000  0.158  0.158
    5  0.000  0.000  0.000  0.000  0.000  0.000  0.000  0.000  0.000  0.000
    6  0.000  0.000  0.000  0.000  0.000  0.000  0.000  0.000  0.049  0.049
    7  0.000  0.000  0.000  0.000  0.000  0.000  0.000  0.000  0.001  0.001
    8  0.000  0.000  0.000  0.000  0.000  0.000  0.000  0.000  0.000  0.000
    9  0.000  0.000  0.000  0.000  0.000  0.000  0.000  0.000  0.049  0.049
   10  0.000  0.000  0.000  0.000  0.000  0.000  0.000  0.000  0.001  0.001
   11  0.000  0.000  0.000  0.000  0.000  0.000  0.000  0.000  0.000  0.000
   12  0.000  0.000  0.000  0.000  0.000  0.000  0.000  0.000  0.256  0.256
   13  0.000  0.000  0.000  0.000  0.000  0.000  0.000  0.000  0.004  0.004
   14  0.000  0.000  0.000  0.000  0.000  0.000  0.000  0.000  0.028  0.028
   15  0.000  0.000  0.000  0.000  0.000  0.000  0.000  0.000  0.004  0.004
   16  0.000  0.000  0.000  0.000  0.000  0.000  0.000  0.000  0.028  0.028
   17  0.000  0.000  0.000  0.000  0.000  0.000  0.000  0.000  0.000  0.000
   18  0.000  0.000  0.000  0.000  0.000  0.000  0.000  0.000  0.256  0.256
   19  0.000  0.000  0.000  0.000  0.000  0.000  0.000  0.000  0.000  0.000
   20  0.000  0.000  0.000  0.000  0.000  0.000  0.000  0.000  0.000  0.000
   21  0.000  0.000  0.000  0.000  0.000  0.000  0.000  0.000  0.000  0.000
   22  0.000  0.000  0.000  0.000  0.000  0.000  0.000  0.000  0.000  0.000
tot    0.000  0.000  0.000  0.000  0.000  0.000  0.000  0.000  0.993  0.993

band    11 # energy  -24.76967341 # occ.  2.00000000

ion      s     py     pz     px    dxy    dyz    dz2    dxz  x2-y2    tot
    1  0.000  0.000  0.000  0.000  0.000  0.016  0.000  0.016  0.000  0.032
    2  0.000  0.000  0.000  0.000  0.000  0.005  0.000  0.005  0.000  0.010
    3  0.000  0.000  0.000  0.000  0.000  0.016  0.000  0.016  0.000  0.032
    4  0.000  0.000  0.000  0.000  0.000  0.005  0.000  0.005  0.000  0.010
    5  0.000  0.000  0.000  0.000  0.000  0.000  0.000  0.000  0.000  0.000
    6  0.000  0.000  0.000  0.000  0.000  0.097  0.000  0.097  0.000  0.193
    7  0.000  0.000  0.000  0.000  0.000  0.003  0.000  0.003  0.000  0.006
    8  0.000  0.000  0.000  0.000  0.000  0.000  0.000  0.000  0.000  0.000
    9  0.000  0.000  0.000  0.000  0.000  0.096  0.000  0.096  0.000  0.193
   10  0.000  0.000  0.000  0.000  0.000  0.003  0.000  0.003  0.000  0.006
   11  0.000  0.000  0.000  0.000  0.000  0.000  0.000  0.000  0.000  0.000
   12  0.000  0.000  0.000  0.000  0.000  0.000  0.000  0.000  0.082  0.082
   13  0.000  0.000  0.000  0.000  0.142  0.000  0.000  0.000  0.000  0.142
   14  0.000  0.000  0.000  0.000  0.032  0.000  0.000  0.000  0.000  0.032
   15  0.000  0.000  0.000  0.000  0.142  0.000  0.000  0.000  0.000  0.142
   16  0.000  0.000  0.000  0.000  0.032  0.000  0.000  0.000  0.000  0.032
   17  0.000  0.000  0.000  0.000  0.000  0.000  0.000  0.000  0.000  0.000
   18  0.000  0.000  0.000  0.000  0.000  0.000  0.000  0.000  0.082  0.082
   19  0.000  0.000  0.000  0.000  0.000  0.000  0.000  0.000  0.000  0.000
   20  0.000  0.000  0.000  0.000  0.000  0.000  0.000  0.000  0.000  0.000
   21  0.000  0.000  0.000  0.000  0.000  0.000  0.000  0.000  0.000  0.000
   22  0.000  0.000  0.000  0.000  0.000  0.000  0.000  0.000  0.000  0.000
tot    0.000  0.000  0.000  0.000  0.347  0.241  0.000  0.241  0.164  0.993

band    12 # energy  -24.76234665 # occ.  2.00000000

ion      s     py     pz     px    dxy    dyz    dz2    dxz  x2-y2    tot
    1  0.000  0.000  0.000  0.000  0.000  0.001  0.000  0.001  0.000  0.002
    2  0.000  0.000  0.000  0.000  0.000  0.003  0.000  0.003  0.000  0.006
    3  0.000  0.000  0.000  0.000  0.000  0.001  0.000  0.001  0.000  0.002
    4  0.000  0.000  0.000  0.000  0.000  0.003  0.000  0.003  0.000  0.006
    5  0.000  0.000  0.000  0.000  0.000  0.000  0.000  0.000  0.000  0.000
    6  0.000  0.000  0.000  0.000  0.000  0.142  0.000  0.142  0.000  0.284
    7  0.000  0.000  0.000  0.000  0.000  0.000  0.000  0.000  0.000  0.001
    8  0.000  0.000  0.000  0.000  0.000  0.000  0.000  0.000  0.000  0.000
    9  0.000  0.000  0.000  0.000  0.000  0.142  0.000  0.142  0.000  0.285
   10  0.000  0.000  0.000  0.000  0.000  0.000  0.000  0.000  0.000  0.001
   11  0.000  0.000  0.000  0.000  0.000  0.000  0.000  0.000  0.000  0.000
   12  0.000  0.000  0.000  0.000  0.000  0.000  0.000  0.000  0.000  0.000
   13  0.000  0.000  0.000  0.000  0.000  0.100  0.000  0.100  0.000  0.201
   14  0.000  0.000  0.000  0.000  0.000  0.001  0.000  0.001  0.000  0.002
   15  0.000  0.000  0.000  0.000  0.000  0.100  0.000  0.100  0.000  0.201
   16  0.000  0.000  0.000  0.000  0.000  0.001  0.000  0.001  0.000  0.002
   17  0.000  0.000  0.000  0.000  0.000  0.000  0.000  0.000  0.000  0.000
   18  0.000  0.000  0.000  0.000  0.000  0.000  0.000  0.000  0.000  0.000
   19  0.000  0.000  0.000  0.000  0.000  0.000  0.000  0.000  0.000  0.000
   20  0.000  0.000  0.000  0.000  0.000  0.000  0.000  0.000  0.000  0.000
   21  0.000  0.000  0.000  0.000  0.000  0.000  0.000  0.000  0.000  0.000
   22  0.000  0.000  0.000  0.000  0.000  0.000  0.000  0.000  0.000  0.000
tot    0.000  0.000  0.000  0.000  0.000  0.496  0.000  0.496  0.000  0.994

band    13 # energy  -24.74797161 # occ.  2.00000000

ion      s     py     pz     px    dxy    dyz    dz2    dxz  x2-y2    tot
    1  0.000  0.000  0.000  0.000  0.000  0.000  0.000  0.000  0.001  0.001
    2  0.000  0.000  0.000  0.000  0.000  0.000  0.000  0.000  0.128  0.128
    3  0.000  0.000  0.000  0.000  0.000  0.000  0.000  0.000  0.001  0.001
    4  0.000  0.000  0.000  0.000  0.000  0.000  0.000  0.000  0.127  0.127
    5  0.000  0.000  0.000  0.000  0.000  0.000  0.000  0.000  0.000  0.000
    6  0.000  0.000  0.000  0.000  0.027  0.000  0.000  0.000  0.000  0.027
    7  0.000  0.000  0.000  0.000  0.071  0.000  0.006  0.000  0.000  0.077
    8  0.000  0.000  0.000  0.000  0.000  0.000  0.000  0.000  0.000  0.000
    9  0.000  0.000  0.000  0.000  0.027  0.000  0.000  0.000  0.000  0.027
   10  0.000  0.000  0.000  0.000  0.071  0.000  0.006  0.000  0.000  0.077
   11  0.000  0.000  0.000  0.000  0.000  0.000  0.000  0.000  0.000  0.000
   12  0.000  0.000  0.000  0.000  0.000  0.000  0.000  0.000  0.000  0.001
   13  0.000  0.000  0.000  0.000  0.000  0.007  0.000  0.007  0.000  0.015
   14  0.000  0.000  0.000  0.000  0.000  0.124  0.000  0.124  0.000  0.248
   15  0.000  0.000  0.000  0.000  0.000  0.007  0.000  0.007  0.000  0.015
   16  0.000  0.000  0.000  0.000  0.000  0.124  0.000  0.124  0.000  0.248
   17  0.000  0.000  0.000  0.000  0.000  0.000  0.000  0.000  0.000  0.000
   18  0.000  0.000  0.000  0.000  0.000  0.000  0.000  0.001  0.000  0.001
   19  0.000  0.000  0.000  0.000  0.000  0.000  0.000  0.000  0.000  0.000
   20  0.000  0.000  0.000  0.000  0.000  0.000  0.000  0.000  0.000  0.000
   21  0.000  0.000  0.000  0.000  0.000  0.000  0.000  0.000  0.000  0.000
   22  0.000  0.000  0.000  0.000  0.000  0.000  0.000  0.000  0.000  0.000
tot    0.001  0.000  0.000  0.000  0.197  0.264  0.011  0.264  0.256  0.993

band    14 # energy  -24.74649446 # occ.  2.00000000

ion      s     py     pz     px    dxy    dyz    dz2    dxz  x2-y2    tot
    1  0.000  0.000  0.000  0.000  0.000  0.000  0.000  0.000  0.000  0.001
    2  0.000  0.000  0.000  0.000  0.000  0.059  0.000  0.059  0.000  0.118
    3  0.000  0.000  0.000  0.000  0.000  0.000  0.000  0.000  0.000  0.001
    4  0.000  0.000  0.000  0.000  0.000  0.059  0.000  0.059  0.000  0.118
    5  0.000  0.000  0.000  0.000  0.000  0.000  0.000  0.000  0.000  0.000
    6  0.000  0.000  0.000  0.000  0.000  0.058  0.000  0.058  0.000  0.115
    7  0.000  0.000  0.000  0.000  0.000  0.001  0.000  0.001  0.000  0.002
    8  0.000  0.000  0.000  0.000  0.000  0.000  0.000  0.000  0.000  0.000
    9  0.000  0.000  0.000  0.000  0.000  0.058  0.000  0.058  0.000  0.115
   10  0.000  0.000  0.000  0.000  0.000  0.001  0.000  0.001  0.000  0.002
   11  0.000  0.000  0.000  0.000  0.000  0.000  0.000  0.000  0.000  0.000
   12  0.000  0.000  0.000  0.000  0.007  0.000  0.213  0.000  0.000  0.220
   13  0.000  0.000  0.000  0.000  0.000  0.000  0.000  0.000  0.011  0.011
   14  0.000  0.000  0.000  0.000  0.000  0.000  0.000  0.000  0.029  0.029
   15  0.000  0.000  0.000  0.000  0.000  0.000  0.000  0.000  0.011  0.011
   16  0.000  0.000  0.000  0.000  0.000  0.000  0.000  0.000  0.029  0.029
   17  0.000  0.000  0.000  0.000  0.000  0.000  0.000  0.000  0.000  0.000
   18  0.000  0.000  0.000  0.000  0.007  0.000  0.213  0.000  0.000  0.220
   19  0.000  0.000  0.000  0.000  0.000  0.000  0.000  0.000  0.000  0.000
   20  0.000  0.000  0.000  0.000  0.000  0.000  0.000  0.000  0.000  0.000
   21  0.000  0.000  0.000  0.000  0.000  0.000  0.000  0.000  0.000  0.000
   22  0.000  0.000  0.000  0.000  0.000  0.000  0.000  0.000  0.000  0.000
tot    0.001  0.000  0.000  0.000  0.013  0.236  0.427  0.236  0.081  0.993

band    15 # energy  -24.74055228 # occ.  2.00000000

ion      s     py     pz     px    dxy    dyz    dz2    dxz  x2-y2    tot
    1  0.000  0.000  0.000  0.000  0.005  0.000  0.000  0.000  0.000  0.005
    2  0.000  0.000  0.000  0.000  0.024  0.000  0.121  0.000  0.000  0.145
    3  0.000  0.000  0.000  0.000  0.005  0.000  0.000  0.000  0.000  0.005
    4  0.000  0.000  0.000  0.000  0.024  0.000  0.121  0.000  0.000  0.146
    5  0.000  0.000  0.000  0.000  0.000  0.000  0.000  0.000  0.000  0.000
    6  0.000  0.000  0.000  0.000  0.000  0.000  0.000  0.000  0.048  0.048
    7  0.000  0.000  0.000  0.000  0.000  0.000  0.000  0.000  0.005  0.005
    8  0.000  0.000  0.000  0.000  0.000  0.000  0.000  0.000  0.000  0.000
    9  0.000  0.000  0.000  0.000  0.000  0.000  0.000  0.000  0.048  0.048
   10  0.000  0.000  0.000  0.000  0.000  0.000  0.000  0.000  0.005  0.005
   11  0.000  0.000  0.000  0.000  0.000  0.000  0.000  0.000  0.000  0.000
   12  0.000  0.000  0.000  0.000  0.000  0.059  0.000  0.059  0.000  0.117
   13  0.000  0.000  0.000  0.000  0.000  0.009  0.000  0.009  0.000  0.018
   14  0.000  0.000  0.000  0.000  0.000  0.079  0.000  0.079  0.000  0.157
   15  0.000  0.000  0.000  0.000  0.000  0.009  0.000  0.009  0.000  0.018
   16  0.000  0.000  0.000  0.000  0.000  0.079  0.000  0.079  0.000  0.157
   17  0.000  0.000  0.000  0.000  0.000  0.000  0.000  0.000  0.000  0.000
   18  0.000  0.000  0.000  0.000  0.000  0.059  0.000  0.059  0.000  0.117
   19  0.000  0.000  0.000  0.000  0.000  0.000  0.000  0.000  0.000  0.000
   20  0.000  0.000  0.000  0.000  0.000  0.000  0.000  0.000  0.000  0.000
   21  0.000  0.000  0.000  0.000  0.000  0.000  0.000  0.000  0.000  0.000
   22  0.000  0.000  0.000  0.000  0.000  0.000  0.000  0.000  0.000  0.000
tot    0.001  0.000  0.000  0.000  0.058  0.292  0.243  0.293  0.106  0.993

band    16 # energy  -24.73555549 # occ.  2.00000000

ion      s     py     pz     px    dxy    dyz    dz2    dxz  x2-y2    tot
    1  0.000  0.000  0.000  0.000  0.000  0.000  0.000  0.000  0.000  0.000
    2  0.000  0.000  0.000  0.000  0.000  0.000  0.000  0.000  0.000  0.000
    3  0.000  0.000  0.000  0.000  0.000  0.000  0.000  0.000  0.000  0.000
    4  0.000  0.000  0.000  0.000  0.000  0.000  0.000  0.000  0.000  0.000
    5  0.000  0.000  0.000  0.000  0.000  0.000  0.000  0.000  0.000  0.000
    6  0.000  0.000  0.000  0.000  0.000  0.001  0.000  0.001  0.000  0.001
    7  0.000  0.000  0.000  0.000  0.000  0.071  0.000  0.071  0.000  0.141
    8  0.000  0.000  0.000  0.000  0.000  0.000  0.000  0.000  0.000  0.000
    9  0.000  0.000  0.000  0.000  0.000  0.001  0.000  0.001  0.000  0.001
   10  0.000  0.000  0.000  0.000  0.000  0.071  0.000  0.071  0.000  0.141
   11  0.000  0.000  0.000  0.000  0.000  0.000  0.000  0.000  0.000  0.000
   12  0.000  0.000  0.000  0.000  0.000  0.003  0.000  0.003  0.000  0.007
   13  0.000  0.000  0.000  0.000  0.000  0.001  0.000  0.001  0.000  0.001
   14  0.000  0.000  0.000  0.000  0.000  0.173  0.000  0.173  0.000  0.347
   15  0.000  0.000  0.000  0.000  0.000  0.001  0.000  0.001  0.000  0.001
   16  0.000  0.000  0.000  0.000  0.000  0.173  0.000  0.173  0.000  0.346
   17  0.000  0.000  0.000  0.000  0.000  0.000  0.000  0.000  0.000  0.000
   18  0.000  0.000  0.000  0.000  0.000  0.003  0.000  0.003  0.000  0.007
   19  0.000  0.000  0.000  0.000  0.000  0.000  0.000  0.000  0.000  0.000
   20  0.000  0.000  0.000  0.000  0.000  0.000  0.000  0.000  0.000  0.000