PROCAR lm decomposed
# of k-points:  118         # of bands:   18         # of ions:    2

 k-point     1 :    0.00000000 0.00000000 0.00000000     weight = 0.00100000

band     1 # energy  -23.29924984 # occ.  2.00000000
 
ion      s     py     pz     px    dxy    dyz    dz2    dxz  x2-y2    tot
    1  0.000  0.000  0.000  0.000  0.127  0.050  0.000  0.319  0.000  0.497
    2  0.000  0.000  0.000  0.000  0.127  0.050  0.000  0.319  0.000  0.497
tot    0.000  0.001  0.000  0.000  0.255  0.101  0.000  0.638  0.000  0.994
 
band     2 # energy  -23.29924949 # occ.  2.00000000
 
ion      s     py     pz     px    dxy    dyz    dz2    dxz  x2-y2    tot
    1  0.000  0.000  0.000  0.000  0.192  0.301  0.000  0.004  0.000  0.497
    2  0.000  0.000  0.000  0.000  0.192  0.301  0.000  0.004  0.000  0.497
tot    0.000  0.000  0.000  0.001  0.385  0.601  0.000  0.007  0.000  0.994
 
band     3 # energy  -23.29924669 # occ.  2.00000000
 
ion      s     py     pz     px    dxy    dyz    dz2    dxz  x2-y2    tot
    1  0.000  0.000  0.000  0.000  0.177  0.146  0.000  0.174  0.000  0.497
    2  0.000  0.000  0.000  0.000  0.177  0.146  0.000  0.174  0.000  0.497
tot    0.000  0.000  0.000  0.000  0.353  0.291  0.000  0.348  0.000  0.994
 
band     4 # energy  -23.26251202 # occ.  2.00000000
 
ion      s     py     pz     px    dxy    dyz    dz2    dxz  x2-y2    tot
    1  0.000  0.000  0.000  0.000  0.000  0.000  0.426  0.000  0.071  0.496
    2  0.000  0.000  0.000  0.000  0.000  0.000  0.426  0.000  0.071  0.496
tot    0.000  0.000  0.000  0.000  0.000  0.000  0.851  0.000  0.141  0.993
 
band     5 # energy  -23.26251199 # occ.  2.00000000
 
ion      s     py     pz     px    dxy    dyz    dz2    dxz  x2-y2    tot
    1  0.000  0.000  0.000  0.000  0.000  0.000  0.071  0.000  0.426  0.496
    2  0.000  0.000  0.000  0.000  0.000  0.000  0.071  0.000  0.426  0.496
tot    0.000  0.000  0.000  0.000  0.000  0.000  0.141  0.000  0.851  0.993
 
band     6 # energy  -23.05408753 # occ.  2.00000000
 
ion      s     py     pz     px    dxy    dyz    dz2    dxz  x2-y2    tot
    1  0.000  0.000  0.000  0.000  0.127  0.049  0.000  0.321  0.000  0.498
    2  0.000  0.000  0.000  0.000  0.127  0.049  0.000  0.321  0.000  0.498
tot    0.000  0.000  0.000  0.000  0.255  0.098  0.000  0.642  0.000  0.996
 
band     7 # energy  -23.05408719 # occ.  2.00000000
 
ion      s     py     pz     px    dxy    dyz    dz2    dxz  x2-y2    tot
    1  0.000  0.000  0.000  0.000  0.194  0.299  0.000  0.004  0.000  0.498
    2  0.000  0.000  0.000  0.000  0.194  0.299  0.000  0.004  0.000  0.498
tot    0.000  0.000  0.000  0.000  0.389  0.599  0.000  0.008  0.000  0.996
 
band     8 # energy  -23.05408392 # occ.  2.00000000
 
ion      s     py     pz     px    dxy    dyz    dz2    dxz  x2-y2    tot
    1  0.000  0.000  0.000  0.000  0.176  0.149  0.000  0.173  0.000  0.498
    2  0.000  0.000  0.000  0.000  0.176  0.149  0.000  0.173  0.000  0.498
tot    0.000  0.000  0.000  0.000  0.352  0.298  0.000  0.345  0.000  0.996
 
band     9 # energy  -23.03748333 # occ.  2.00000000
 
ion      s     py     pz     px    dxy    dyz    dz2    dxz  x2-y2    tot
    1  0.000  0.000  0.000  0.000  0.000  0.000  0.414  0.000  0.085  0.499
    2  0.000  0.000  0.000  0.000  0.000  0.000  0.414  0.000  0.085  0.499
tot    0.000  0.000  0.000  0.000  0.000  0.000  0.829  0.000  0.169  0.998
 
band    10 # energy  -23.03748329 # occ.  2.00000000
 
ion      s     py     pz     px    dxy    dyz    dz2    dxz  x2-y2    tot
    1  0.000  0.000  0.000  0.000  0.000  0.000  0.085  0.000  0.414  0.499
    2  0.000  0.000  0.000  0.000  0.000  0.000  0.085  0.000  0.414  0.499
tot    0.000  0.000  0.000  0.000  0.000  0.000  0.169  0.000  0.829  0.998
 
band    11 # energy   -9.39690229 # occ.  2.00000000
 
ion      s     py     pz     px    dxy    dyz    dz2    dxz  x2-y2    tot
    1  0.313  0.000  0.000  0.000  0.000  0.000  0.000  0.000  0.000  0.313
    2  0.313  0.000  0.000  0.000  0.000  0.000  0.000  0.000  0.000  0.313
tot    0.627  0.000  0.000  0.000  0.000  0.000  0.000  0.000  0.000  0.627
 
band    12 # energy    4.67335413 # occ.  1.99999999
 
ion      s     py     pz     px    dxy    dyz    dz2    dxz  x2-y2    tot
    1  0.000  0.103  0.101  0.103  0.013  0.013  0.000  0.013  0.000  0.346
    2  0.000  0.103  0.101  0.103  0.013  0.013  0.000  0.013  0.000  0.346
tot    0.000  0.207  0.202  0.206  0.025  0.026  0.000  0.026  0.000  0.692
 
band    13 # energy    4.67340339 # occ.  1.99999999
 
ion      s     py     pz     px    dxy    dyz    dz2    dxz  x2-y2    tot
    1  0.000  0.051  0.206  0.051  0.026  0.006  0.000  0.006  0.000  0.346
    2  0.000  0.051  0.206  0.051  0.026  0.006  0.000  0.006  0.000  0.346
tot    0.000  0.102  0.411  0.101  0.052  0.013  0.000  0.013  0.000  0.692
 
band    14 # energy    4.67340354 # occ.  1.99999999
 
ion      s     py     pz     px    dxy    dyz    dz2    dxz  x2-y2    tot
    1  0.000  0.153  0.001  0.154  0.000  0.019  0.000  0.019  0.000  0.346
    2  0.000  0.153  0.001  0.154  0.000  0.019  0.000  0.019  0.000  0.346
tot    0.000  0.306  0.001  0.308  0.000  0.039  0.000  0.039  0.000  0.692
 
band    15 # energy    5.54659555 # occ.  0.00000000
 
ion      s     py     pz     px    dxy    dyz    dz2    dxz  x2-y2    tot
    1  0.432  0.000  0.000  0.000  0.000  0.000  0.000  0.000  0.000  0.432
    2  0.432  0.000  0.000  0.000  0.000  0.000  0.000  0.000  0.000  0.432
tot    0.865  0.000  0.000  0.000  0.000  0.000  0.000  0.000  0.000  0.865
 
band    16 # energy    7.90113002 # occ.  0.00000000
 
ion      s     py     pz     px    dxy    dyz    dz2    dxz  x2-y2    tot
    1  0.000  0.055  0.092  0.059  0.021  0.013  0.000  0.012  0.000  0.253
    2  0.000  0.055  0.092  0.059  0.021  0.013  0.000  0.012  0.000  0.253
tot    0.000  0.111  0.184  0.118  0.042  0.027  0.000  0.025  0.000  0.505
 
band    17 # energy    7.90114641 # occ.  0.00000000
 
ion      s     py     pz     px    dxy    dyz    dz2    dxz  x2-y2    tot
    1  0.000  0.078  0.093  0.036  0.021  0.008  0.000  0.017  0.000  0.253
    2  0.000  0.078  0.093  0.036  0.021  0.008  0.000  0.017  0.000  0.253
tot    0.000  0.155  0.186  0.072  0.042  0.016  0.000  0.035  0.000  0.505
 
band    18 # energy    7.90114686 # occ.  0.00000000
 
ion      s     py     pz     px    dxy    dyz    dz2    dxz  x2-y2    tot
    1  0.000  0.073  0.021  0.112  0.005  0.025  0.000  0.017  0.000  0.253
    2  0.000  0.073  0.021  0.112  0.005  0.025  0.000  0.017  0.000  0.253
tot    0.000  0.147  0.043  0.223  0.010  0.050  0.000  0.033  0.000  0.505
 

 k-point     2 :    0.10000000 0.00000000 0.00000000     weight = 0.00800000

band     1 # energy  -23.30518229 # occ.  2.00000000
 
ion      s     py     pz     px    dxy    dyz    dz2    dxz  x2-y2    tot
    1  0.000  0.000  0.000  0.000  0.233  0.000  0.030  0.225  0.009  0.497
    2  0.000  0.000  0.000  0.000  0.233  0.000  0.030  0.225  0.009  0.497
tot    0.000  0.000  0.000  0.000  0.465  0.000  0.060  0.449  0.019  0.994
 
band     2 # energy  -23.30517952 # occ.  2.00000000
 
ion      s     py     pz     px    dxy    dyz    dz2    dxz  x2-y2    tot
    1  0.000  0.000  0.000  0.000  0.072  0.305  0.009  0.080  0.030  0.497
    2  0.000  0.000  0.000  0.000  0.072  0.305  0.009  0.080  0.030  0.497
tot    0.000  0.000  0.000  0.001  0.144  0.610  0.019  0.161  0.060  0.994
 
band     3 # energy  -23.29788597 # occ.  2.00000000
 
ion      s     py     pz     px    dxy    dyz    dz2    dxz  x2-y2    tot
    1  0.000  0.000  0.000  0.000  0.166  0.165  0.000  0.166  0.000  0.497
    2  0.000  0.000  0.000  0.000  0.166  0.165  0.000  0.166  0.000  0.497
tot    0.000  0.000  0.000  0.000  0.331  0.331  0.000  0.331  0.000  0.994
 
band     4 # energy  -23.25457434 # occ.  2.00000000
 
ion      s     py     pz     px    dxy    dyz    dz2    dxz  x2-y2    tot
    1  0.000  0.000  0.000  0.000  0.009  0.026  0.154  0.005  0.303  0.496
    2  0.000  0.000  0.000  0.000  0.009  0.026  0.154  0.005  0.303  0.496
tot    0.000  0.000  0.000  0.000  0.018  0.052  0.307  0.009  0.607  0.993
 
band     5 # energy  -23.25457422 # occ.  2.00000000
 
ion      s     py     pz     px    dxy    dyz    dz2    dxz  x2-y2    tot
    1  0.000  0.000  0.000  0.000  0.017  0.000  0.303  0.022  0.154  0.496
    2  0.000  0.000  0.000  0.000  0.017  0.000  0.303  0.022  0.154  0.496
tot    0.000  0.000  0.000  0.000  0.035  0.000  0.607  0.043  0.307  0.993
 
band     6 # energy  -23.06181043 # occ.  2.00000000
 
ion      s     py     pz     px    dxy    dyz    dz2    dxz  x2-y2    tot
    1  0.000  0.000  0.000  0.000  0.166  0.000  0.130  0.161  0.041  0.498
    2  0.000  0.000  0.000  0.000  0.166  0.000  0.130  0.161  0.041  0.498
tot    0.000  0.000  0.000  0.000  0.331  0.000  0.260  0.322  0.082  0.996
 
band     7 # energy  -23.06180870 # occ.  2.00000000
 
ion      s     py     pz     px    dxy    dyz    dz2    dxz  x2-y2    tot
    1  0.000  0.000  0.000  0.000  0.052  0.218  0.041  0.057  0.130  0.498
    2  0.000  0.000  0.000  0.000  0.052  0.218  0.041  0.057  0.130  0.498
tot    0.000  0.000  0.000  0.000  0.105  0.436  0.082  0.113  0.260  0.996
 
band     8 # energy  -23.05589398 # occ.  2.00000000
 
ion      s     py     pz     px    dxy    dyz    dz2    dxz  x2-y2    tot
    1  0.000  0.000  0.000  0.000  0.166  0.166  0.000  0.166  0.000  0.498
    2  0.000  0.000  0.000  0.000  0.166  0.166  0.000  0.166  0.000  0.498
tot    0.000  0.000  0.000  0.000  0.332  0.332  0.000  0.332  0.000  0.996
 
band     9 # energy  -23.03103009 # occ.  2.00000000
 
ion      s     py     pz     px    dxy    dyz    dz2    dxz  x2-y2    tot
    1  0.000  0.000  0.000  0.000  0.088  0.000  0.252  0.083  0.076  0.499
    2  0.000  0.000  0.000  0.000  0.088  0.000  0.252  0.083  0.076  0.499
tot    0.000  0.000  0.000  0.000  0.175  0.000  0.504  0.167  0.152  0.997
 
band    10 # energy  -23.03102865 # occ.  2.00000000
 
ion      s     py     pz     px    dxy    dyz    dz2    dxz  x2-y2    tot
    1  0.000  0.000  0.000  0.000  0.026  0.114  0.076  0.031  0.252  0.499
    2  0.000  0.000  0.000  0.000  0.026  0.114  0.076  0.031  0.252  0.499
tot    0.000  0.000  0.000  0.000  0.053  0.228  0.152  0.061  0.504  0.997
 
band    11 # energy   -9.26145508 # occ.  2.00000000
 
ion      s     py     pz     px    dxy    dyz    dz2    dxz  x2-y2    tot
    1  0.312  0.001  0.001  0.001  0.000  0.000  0.000  0.000  0.000  0.314
    2  0.312  0.001  0.001  0.001  0.000  0.000  0.000  0.000  0.000  0.314
tot    0.625  0.001  0.001  0.001  0.000  0.000  0.000  0.000  0.000  0.629
 
band    12 # energy    2.86969596 # occ.  2.00000000
 
ion      s     py     pz     px    dxy    dyz    dz2    dxz  x2-y2    tot
    1  0.151  0.061  0.061  0.061  0.008  0.008  0.000  0.008  0.000  0.357
    2  0.151  0.061  0.061  0.061  0.008  0.008  0.000  0.008  0.000  0.357
tot    0.302  0.122  0.122  0.122  0.016  0.016  0.000  0.016  0.000  0.715
 
band    13 # energy    4.43498465 # occ.  2.00000000
 
ion      s     py     pz     px    dxy    dyz    dz2    dxz  x2-y2    tot
    1  0.000  0.051  0.050  0.202  0.006  0.023  0.000  0.006  0.000  0.338
    2  0.000  0.051  0.050  0.202  0.006  0.023  0.000  0.006  0.000  0.338
tot    0.000  0.103  0.099  0.404  0.011  0.046  0.000  0.012  0.001  0.676
 
band    14 # energy    4.43502609 # occ.  2.00000000
 
ion      s     py     pz     px    dxy    dyz    dz2    dxz  x2-y2    tot
    1  0.000  0.151  0.152  0.000  0.017  0.000  0.000  0.017  0.000  0.338
    2  0.000  0.151  0.152  0.000  0.017  0.000  0.000  0.017  0.000  0.338
tot    0.000  0.301  0.305  0.000  0.035  0.000  0.001  0.035  0.000  0.676
 
band    15 # energy    6.40663478 # occ.  0.00000000
 
ion      s     py     pz     px    dxy    dyz    dz2    dxz  x2-y2    tot
    1  0.248  0.034  0.034  0.034  0.004  0.004  0.000  0.004  0.000  0.363
    2  0.248  0.034  0.034  0.034  0.004  0.004  0.000  0.004  0.000  0.363
tot    0.496  0.069  0.069  0.069  0.008  0.008  0.000  0.008  0.000  0.726
 
band    16 # energy    8.22546910 # occ.  0.00000000
 
ion      s     py     pz     px    dxy    dyz    dz2    dxz  x2-y2    tot
    1  0.000  0.015  0.083  0.113  0.019  0.026  0.001  0.003  0.000  0.261
    2  0.000  0.015  0.083  0.113  0.019  0.026  0.001  0.003  0.000  0.261
tot    0.000  0.030  0.165  0.226  0.038  0.052  0.001  0.007  0.001  0.521
 
band    17 # energy    8.22547992 # occ.  0.00000000
 
ion      s     py     pz     px    dxy    dyz    dz2    dxz  x2-y2    tot
    1  0.000  0.126  0.058  0.028  0.013  0.006  0.000  0.029  0.001  0.261
    2  0.000  0.126  0.058  0.028  0.013  0.006  0.000  0.029  0.001  0.261
tot    0.000  0.251  0.116  0.055  0.027  0.013  0.001  0.057  0.001  0.521
 
band    18 # energy    8.51343547 # occ.  0.00000000
 
ion      s     py     pz     px    dxy    dyz    dz2    dxz  x2-y2    tot
    1  0.050  0.065  0.065  0.065  0.015  0.015  0.000  0.015  0.000  0.289
    2  0.050  0.065  0.065  0.065  0.015  0.015  0.000  0.015  0.000  0.289
tot    0.099  0.130  0.130  0.130  0.030  0.030  0.000  0.030  0.000  0.578
 

 k-point     3 :    0.20000000 0.00000000 0.00000000     weight = 0.00800000

band     1 # energy  -23.31429250 # occ.  2.00000000
 
ion      s     py     pz     px    dxy    dyz    dz2    dxz  x2-y2    tot
    1  0.000  0.000  0.000  0.000  0.225  0.000  0.041  0.217  0.013  0.497
    2  0.000  0.000  0.000  0.000  0.225  0.000  0.041  0.217  0.013  0.497
tot    0.000  0.000  0.000  0.000  0.451  0.000  0.083  0.433  0.026  0.994
 
band     2 # energy  -23.31428941 # occ.  2.00000000
 
ion      s     py     pz     px    dxy    dyz    dz2    dxz  x2-y2    tot
    1  0.000  0.000  0.000  0.000  0.069  0.295  0.013  0.078  0.041  0.497
    2  0.000  0.000  0.000  0.000  0.069  0.295  0.013  0.078  0.041  0.497
tot    0.000  0.000  0.000  0.000  0.139  0.589  0.026  0.156  0.083  0.994
 
band     3 # energy  -23.29376892 # occ.  2.00000000
 
ion      s     py     pz     px    dxy    dyz    dz2    dxz  x2-y2    tot
    1  0.000  0.000  0.000  0.000  0.166  0.165  0.000  0.166  0.000  0.497
    2  0.000  0.000  0.000  0.000  0.166  0.165  0.000  0.166  0.000  0.497
tot    0.000  0.000  0.000  0.000  0.331  0.331  0.000  0.331  0.000  0.994
 
band     4 # energy  -23.24038787 # occ.  2.00000000
 
ion      s     py     pz     px    dxy    dyz    dz2    dxz  x2-y2    tot
    1  0.000  0.000  0.000  0.000  0.009  0.037  0.110  0.009  0.331  0.497
    2  0.000  0.000  0.000  0.000  0.009  0.037  0.110  0.009  0.331  0.497
tot    0.000  0.000  0.000  0.000  0.019  0.075  0.219  0.019  0.662  0.993
 
band     5 # energy  -23.24038735 # occ.  2.00000000
 
ion      s     py     pz     px    dxy    dyz    dz2    dxz  x2-y2    tot
    1  0.000  0.000  0.000  0.000  0.028  0.000  0.331  0.028  0.110  0.497
    2  0.000  0.000  0.000  0.000  0.028  0.000  0.331  0.028  0.110  0.497
tot    0.000  0.000  0.000  0.000  0.056  0.000  0.662  0.056  0.219  0.993
 
band     6 # energy  -23.07311065 # occ.  2.00000000
 
ion      s     py     pz     px    dxy    dyz    dz2    dxz  x2-y2    tot
    1  0.000  0.000  0.000  0.000  0.103  0.000  0.224  0.100  0.071  0.498
    2  0.000  0.000  0.000  0.000  0.103  0.000  0.224  0.100  0.071  0.498
tot    0.000  0.000  0.000  0.000  0.205  0.000  0.448  0.200  0.142  0.996
 
band     7 # energy  -23.07311004 # occ.  2.00000000
 
ion      s     py     pz     px    dxy    dyz    dz2    dxz  x2-y2    tot
    1  0.000  0.000  0.000  0.000  0.033  0.135  0.071  0.035  0.224  0.498
    2  0.000  0.000  0.000  0.000  0.033  0.135  0.071  0.035  0.224  0.498
tot    0.000  0.000  0.000  0.000  0.065  0.270  0.142  0.070  0.448  0.996
 
band     8 # energy  -23.06064769 # occ.  2.00000000
 
ion      s     py     pz     px    dxy    dyz    dz2    dxz  x2-y2    tot
    1  0.000  0.000  0.000  0.000  0.166  0.166  0.000  0.166  0.000  0.498
    2  0.000  0.000  0.000  0.000  0.166  0.166  0.000  0.166  0.000  0.498
tot    0.000  0.000  0.000  0.000  0.332  0.332  0.000  0.332  0.000  0.996
 
band     9 # energy  -23.02268935 # occ.  2.00000000
 
ion      s     py     pz     px    dxy    dyz    dz2    dxz  x2-y2    tot
    1  0.000  0.000  0.000  0.000  0.150  0.000  0.157  0.144  0.048  0.499
    2  0.000  0.000  0.000  0.000  0.150  0.000  0.157  0.144  0.048  0.499
tot    0.000  0.000  0.000  0.000  0.299  0.000  0.313  0.288  0.097  0.997
 
band    10 # energy  -23.02268659 # occ.  2.00000000
 
ion      s     py     pz     px    dxy    dyz    dz2    dxz  x2-y2    tot
    1  0.000  0.000  0.000  0.000  0.046  0.196  0.048  0.052  0.157  0.499
    2  0.000  0.000  0.000  0.000  0.046  0.196  0.048  0.052  0.157  0.499
tot    0.000  0.000  0.000  0.000  0.092  0.391  0.097  0.103  0.313  0.997
 
band    11 # energy   -8.86229722 # occ.  2.00000000
 
ion      s     py     pz     px    dxy    dyz    dz2    dxz  x2-y2    tot
    1  0.310  0.002  0.002  0.002  0.000  0.000  0.000  0.000  0.000  0.317
    2  0.310  0.002  0.002  0.002  0.000  0.000  0.000  0.000  0.000  0.317
tot    0.619  0.005  0.005  0.005  0.000  0.000  0.000  0.000  0.000  0.635
 
band    12 # energy    0.66331757 # occ.  2.00000000
 
ion      s     py     pz     px    dxy    dyz    dz2    dxz  x2-y2    tot
    1  0.169  0.051  0.051  0.051  0.006  0.006  0.000  0.006  0.000  0.340
    2  0.169  0.051  0.051  0.051  0.006  0.006  0.000  0.006  0.000  0.340
tot    0.339  0.103  0.103  0.103  0.011  0.011  0.000  0.011  0.000  0.680
 
band    13 # energy    3.96074272 # occ.  2.00000000
 
ion      s     py     pz     px    dxy    dyz    dz2    dxz  x2-y2    tot
    1  0.000  0.051  0.049  0.199  0.004  0.018  0.000  0.005  0.001  0.327
    2  0.000  0.051  0.049  0.199  0.004  0.018  0.000  0.005  0.001  0.327
tot    0.000  0.102  0.098  0.399  0.009  0.036  0.001  0.009  0.002  0.655
 
band    14 # energy    3.96078095 # occ.  2.00000000
 
ion      s     py     pz     px    dxy    dyz    dz2    dxz  x2-y2    tot
    1  0.000  0.149  0.150  0.000  0.014  0.000  0.001  0.014  0.000  0.327
    2  0.000  0.149  0.150  0.000  0.014  0.000  0.001  0.014  0.000  0.327
tot    0.000  0.297  0.301  0.000  0.027  0.000  0.002  0.027  0.001  0.655
 
band    15 # energy    6.21404214 # occ.  0.00000000
 
ion      s     py     pz     px    dxy    dyz    dz2    dxz  x2-y2    tot
    1  0.203  0.029  0.029  0.029  0.007  0.007  0.000  0.007  0.000  0.312
    2  0.203  0.029  0.029  0.029  0.007  0.007  0.000  0.007  0.000  0.312
tot    0.407  0.059  0.059  0.059  0.013  0.013  0.000  0.013  0.000  0.624
 
band    16 # energy    8.83053144 # occ.  0.00000000
 
ion      s     py     pz     px    dxy    dyz    dz2    dxz  x2-y2    tot
    1  0.000  0.042  0.030  0.137  0.007  0.031  0.002  0.009  0.006  0.265
    2  0.000  0.042  0.030  0.137  0.007  0.031  0.002  0.009  0.006  0.265
tot    0.000  0.083  0.061  0.274  0.014  0.063  0.004  0.019  0.013  0.530
 
band    17 # energy    8.83055211 # occ.  0.00000000
 
ion      s     py     pz     px    dxy    dyz    dz2    dxz  x2-y2    tot
    1  0.000  0.098  0.109  0.002  0.025  0.000  0.006  0.022  0.002  0.265
    2  0.000  0.098  0.109  0.002  0.025  0.000  0.006  0.022  0.002  0.265
tot    0.000  0.196  0.218  0.004  0.050  0.001  0.013  0.045  0.004  0.530
 
band    18 # energy   10.28161226 # occ.  0.00000000
 
ion      s     py     pz     px    dxy    dyz    dz2    dxz  x2-y2    tot
    1  0.094  0.063  0.063  0.063  0.011  0.011  0.000  0.011  0.000  0.315
    2  0.094  0.063  0.063  0.063  0.011  0.011  0.000  0.011  0.000  0.315
tot    0.188  0.126  0.126  0.126  0.022  0.022  0.000  0.022  0.000  0.631
 

 k-point     4 :    0.30000000 0.00000000 0.00000000     weight = 0.00800000

band     1 # energy  -23.32072856 # occ.  2.00000000
 
ion      s     py     pz     px    dxy    dyz    dz2    dxz  x2-y2    tot
    1  0.000  0.000  0.000  0.000  0.232  0.000  0.032  0.223  0.010  0.497
    2  0.000  0.000  0.000  0.000  0.232  0.000  0.032  0.223  0.010  0.497
tot    0.000  0.000  0.000  0.000  0.464  0.000  0.064  0.445  0.020  0.993
 
band     2 # energy  -23.32072504 # occ.  2.00000000
 
ion      s     py     pz     px    dxy    dyz    dz2    dxz  x2-y2    tot
    1  0.000  0.000  0.000  0.000  0.071  0.303  0.010  0.080  0.032  0.497
    2  0.000  0.000  0.000  0.000  0.071  0.303  0.010  0.080  0.032  0.497
tot    0.000  0.000  0.000  0.000  0.142  0.606  0.020  0.161  0.064  0.993
 
band     3 # energy  -23.28851755 # occ.  2.00000000
 
ion      s     py     pz     px    dxy    dyz    dz2    dxz  x2-y2    tot
    1  0.000  0.000  0.000  0.000  0.165  0.165  0.000  0.165  0.000  0.497
    2  0.000  0.000  0.000  0.000  0.165  0.165  0.000  0.165  0.000  0.497
tot    0.001  0.000  0.000  0.000  0.331  0.331  0.000  0.331  0.000  0.994
 
band     4 # energy  -23.22870815 # occ.  2.00000000
 
ion      s     py     pz     px    dxy    dyz    dz2    dxz  x2-y2    tot
    1  0.000  0.000  0.000  0.000  0.008  0.032  0.107  0.008  0.341  0.497
    2  0.000  0.000  0.000  0.000  0.008  0.032  0.107  0.008  0.341  0.497
tot    0.000  0.000  0.000  0.000  0.015  0.064  0.215  0.017  0.682  0.993
 
band     5 # energy  -23.22870711 # occ.  2.00000000
 
ion      s     py     pz     px    dxy    dyz    dz2    dxz  x2-y2    tot
    1  0.000  0.000  0.000  0.000  0.024  0.000  0.341  0.024  0.107  0.497
    2  0.000  0.000  0.000  0.000  0.024  0.000  0.341  0.024  0.107  0.497
tot    0.000  0.000  0.000  0.000  0.049  0.000  0.682  0.047  0.215  0.993
 
band     6 # energy  -23.08115445 # occ.  2.00000000
 
ion      s     py     pz     px    dxy    dyz    dz2    dxz  x2-y2    tot
    1  0.000  0.000  0.000  0.000  0.018  0.075  0.092  0.019  0.294  0.498
    2  0.000  0.000  0.000  0.000  0.018  0.075  0.092  0.019  0.294  0.498
tot    0.000  0.000  0.000  0.000  0.036  0.149  0.185  0.039  0.587  0.996
 
band     7 # energy  -23.08115414 # occ.  2.00000000
 
ion      s     py     pz     px    dxy    dyz    dz2    dxz  x2-y2    tot
    1  0.000  0.000  0.000  0.000  0.057  0.000  0.294  0.055  0.092  0.498
    2  0.000  0.000  0.000  0.000  0.057  0.000  0.294  0.055  0.092  0.498
tot    0.000  0.000  0.000  0.000  0.114  0.000  0.587  0.110  0.185  0.996
 
band     8 # energy  -23.06652758 # occ.  2.00000000
 
ion      s     py     pz     px    dxy    dyz    dz2    dxz  x2-y2    tot
    1  0.000  0.000  0.000  0.000  0.166  0.166  0.000  0.166  0.000  0.498
    2  0.000  0.000  0.000  0.000  0.166  0.166  0.000  0.166  0.000  0.498
tot    0.001  0.000  0.000  0.000  0.332  0.332  0.000  0.332  0.000  0.996
 
band     9 # energy  -23.01706459 # occ.  2.00000000
 
ion      s     py     pz     px    dxy    dyz    dz2    dxz  x2-y2    tot
    1  0.000  0.000  0.000  0.000  0.193  0.000  0.091  0.187  0.028  0.499
    2  0.000  0.000  0.000  0.000  0.193  0.000  0.091  0.187  0.028  0.499
tot    0.000  0.000  0.000  0.000  0.387  0.000  0.181  0.373  0.056  0.997
 
band    10 # energy  -23.01706076 # occ.  2.00000000
 
ion      s     py     pz     px    dxy    dyz    dz2    dxz  x2-y2    tot
    1  0.000  0.000  0.000  0.000  0.060  0.253  0.028  0.067  0.091  0.499
    2  0.000  0.000  0.000  0.000  0.060  0.253  0.028  0.067  0.091  0.499
tot    0.000  0.000  0.000  0.000  0.120  0.506  0.056  0.133  0.181  0.997
 
band    11 # energy   -8.23155740 # occ.  2.00000000
 
ion      s     py     pz     px    dxy    dyz    dz2    dxz  x2-y2    tot
    1  0.308  0.005  0.005  0.005  0.001  0.001  0.000  0.001  0.000  0.323
    2  0.308  0.005  0.005  0.005  0.001  0.001  0.000  0.001  0.000  0.323
tot    0.615  0.009  0.009  0.009  0.001  0.001  0.000  0.001  0.000  0.647
 
band    12 # energy   -1.34288827 # occ.  2.00000000
 
ion      s     py     pz     px    dxy    dyz    dz2    dxz  x2-y2    tot
    1  0.178  0.045  0.045  0.045  0.004  0.004  0.000  0.004  0.000  0.323
    2  0.178  0.045  0.045  0.045  0.004  0.004  0.000  0.004  0.000  0.323
tot    0.356  0.089  0.089  0.089  0.007  0.007  0.000  0.007  0.000  0.645
 
band    13 # energy    3.52724663 # occ.  2.00000000
 
ion      s     py     pz     px    dxy    dyz    dz2    dxz  x2-y2    tot
    1  0.000  0.051  0.049  0.199  0.003  0.014  0.000  0.003  0.001  0.321
    2  0.000  0.051  0.049  0.199  0.003  0.014  0.000  0.003  0.001  0.321
tot    0.000  0.102  0.098  0.399  0.007  0.027  0.001  0.007  0.003  0.643
 
band    14 # energy    3.52728298 # occ.  2.00000000
 
ion      s     py     pz     px    dxy    dyz    dz2    dxz  x2-y2    tot
    1  0.000  0.149  0.151  0.000  0.010  0.000  0.001  0.010  0.000  0.321
    2  0.000  0.149  0.151  0.000  0.010  0.000  0.001  0.010  0.000  0.321
tot    0.000  0.297  0.301  0.000  0.021  0.000  0.003  0.020  0.001  0.643
 
band    15 # energy    5.83554253 # occ.  0.00000000
 
ion      s     py     pz     px    dxy    dyz    dz2    dxz  x2-y2    tot
    1  0.207  0.023  0.023  0.023  0.008  0.008  0.000  0.008  0.000  0.300
    2  0.207  0.023  0.023  0.023  0.008  0.008  0.000  0.008  0.000  0.300
tot    0.414  0.046  0.046  0.046  0.017  0.017  0.000  0.017  0.000  0.601
 
band    16 # energy    9.16692733 # occ.  0.00000000
 
ion      s     py     pz     px    dxy    dyz    dz2    dxz  x2-y2    tot
    1  0.000  0.047  0.029  0.107  0.007  0.024  0.006  0.011  0.019  0.248
    2  0.000  0.047  0.029  0.107  0.007  0.024  0.006  0.011  0.019  0.248
tot    0.000  0.094  0.058  0.213  0.013  0.048  0.012  0.021  0.037  0.496
 
band    17 # energy    9.16694314 # occ.  0.00000000
 
ion      s     py     pz     px    dxy    dyz    dz2    dxz  x2-y2    tot
    1  0.000  0.075  0.093  0.015  0.021  0.003  0.019  0.017  0.006  0.248
    2  0.000  0.075  0.093  0.015  0.021  0.003  0.019  0.017  0.006  0.248
tot    0.000  0.150  0.185  0.030  0.042  0.007  0.037  0.034  0.012  0.496
 
band    18 # energy   12.21084016 # occ.  0.00000000
 
ion      s     py     pz     px    dxy    dyz    dz2    dxz  x2-y2    tot
    1  0.063  0.067  0.066  0.068  0.009  0.009  0.000  0.009  0.000  0.291
    2  0.067  0.070  0.071  0.070  0.008  0.008  0.000  0.008  0.000  0.301
tot    0.130  0.137  0.136  0.137  0.017  0.017  0.000  0.017  0.000  0.592
 

 k-point     5 :    0.40000000 0.00000000 0.00000000     weight = 0.00800000

band     1 # energy  -23.32398047 # occ.  2.00000000
 
ion      s     py     pz     px    dxy    dyz    dz2    dxz  x2-y2    tot
    1  0.000  0.000  0.000  0.000  0.241  0.000  0.019  0.231  0.006  0.497
    2  0.000  0.000  0.000  0.000  0.241  0.000  0.019  0.231  0.006  0.497
tot    0.000  0.000  0.000  0.000  0.481  0.000  0.038  0.462  0.012  0.994
 
band     2 # energy  -23.32397657 # occ.  2.00000000
 
ion      s     py     pz     px    dxy    dyz    dz2    dxz  x2-y2    tot
    1  0.000  0.000  0.000  0.000  0.074  0.314  0.006  0.083  0.019  0.497
    2  0.000  0.000  0.000  0.000  0.074  0.314  0.006  0.083  0.019  0.497
tot    0.000  0.000  0.000  0.000  0.148  0.629  0.012  0.167  0.038  0.994
 
band     3 # energy  -23.28429623 # occ.  2.00000000
 
ion      s     py     pz     px    dxy    dyz    dz2    dxz  x2-y2    tot
    1  0.000  0.000  0.000  0.000  0.165  0.165  0.000  0.165  0.000  0.497
    2  0.000  0.000  0.000  0.000  0.165  0.165  0.000  0.165  0.000  0.497
tot    0.001  0.000  0.000  0.000  0.331  0.331  0.000  0.331  0.000  0.994
 
band     4 # energy  -23.22228960 # occ.  2.00000000
 
ion      s     py     pz     px    dxy    dyz    dz2    dxz  x2-y2    tot
    1  0.000  0.000  0.000  0.000  0.006  0.025  0.109  0.006  0.351  0.497
    2  0.000  0.000  0.000  0.000  0.006  0.025  0.109  0.006  0.351  0.497
tot    0.000  0.000  0.000  0.000  0.012  0.049  0.218  0.013  0.701  0.993
 
band     5 # energy  -23.22228816 # occ.  2.00000000
 
ion      s     py     pz     px    dxy    dyz    dz2    dxz  x2-y2    tot
    1  0.000  0.000  0.000  0.000  0.019  0.000  0.351  0.018  0.109  0.497
    2  0.000  0.000  0.000  0.000  0.019  0.000  0.351  0.018  0.109  0.497
tot    0.000  0.000  0.000  0.000  0.038  0.000  0.701  0.036  0.218  0.993
 
band     6 # energy  -23.08489160 # occ.  2.00000000
 
ion      s     py     pz     px    dxy    dyz    dz2    dxz  x2-y2    tot
    1  0.000  0.000  0.000  0.000  0.007  0.029  0.109  0.008  0.345  0.498
    2  0.000  0.000  0.000  0.000  0.007  0.029  0.109  0.008  0.345  0.498
tot    0.000  0.000  0.000  0.000  0.014  0.059  0.218  0.015  0.691  0.997
 
band     7 # energy  -23.08489055 # occ.  2.00000000
 
ion      s     py     pz     px    dxy    dyz    dz2    dxz  x2-y2    tot
    1  0.000  0.000  0.000  0.000  0.022  0.000  0.345  0.022  0.109  0.498
    2  0.000  0.000  0.000  0.000  0.022  0.000  0.345  0.022  0.109  0.498
tot    0.000  0.000  0.000  0.000  0.045  0.000  0.691  0.043  0.218  0.997
 
band     8 # energy  -23.07147633 # occ.  2.00000000
 
ion      s     py     pz     px    dxy    dyz    dz2    dxz  x2-y2    tot
    1  0.001  0.000  0.000  0.000  0.166  0.166  0.000  0.166  0.000  0.498
    2  0.001  0.000  0.000  0.000  0.166  0.166  0.000  0.166  0.000  0.498
tot    0.001  0.000  0.000  0.000  0.332  0.332  0.000  0.332  0.000  0.996
 
band     9 # energy  -23.01437113 # occ.  2.00000000
 
ion      s     py     pz     px    dxy    dyz    dz2    dxz  x2-y2    tot
    1  0.000  0.000  0.000  0.000  0.225  0.000  0.043  0.217  0.013  0.499
    2  0.000  0.000  0.000  0.000  0.225  0.000  0.043  0.217  0.013  0.499
tot    0.000  0.000  0.000  0.000  0.450  0.000  0.086  0.434  0.027  0.997
 
band    10 # energy  -23.01436645 # occ.  2.00000000
 
ion      s     py     pz     px    dxy    dyz    dz2    dxz  x2-y2    tot
    1  0.000  0.000  0.000  0.000  0.070  0.295  0.013  0.078  0.043  0.499
    2  0.000  0.000  0.000  0.000  0.070  0.295  0.013  0.078  0.043  0.499
tot    0.000  0.000  0.000  0.000  0.140  0.589  0.027  0.155  0.086  0.997
 
band    11 # energy   -7.48644702 # occ.  2.00000000
 