       N       E                     dE             d eps       ncg     rms          rms(c)
DAV:   1     0.613292861659E+04    0.61329E+04   -0.19597E+05  6332   0.316E+03
DAV:   2     0.119147316613E+04   -0.49415E+04   -0.47965E+04  6492   0.804E+02
DAV:   3    -0.158639986360E+02   -0.12073E+04   -0.11548E+04  6548   0.248E+02
DAV:   4    -0.159638739487E+03   -0.14377E+03   -0.14091E+03  6896   0.961E+01
DAV:   5    -0.166859028923E+03   -0.72203E+01   -0.71644E+01  6280   0.240E+01    0.151E+01
DAV:   6    -0.164474284406E+03    0.23847E+01   -0.58237E+00  6408   0.214E+01    0.854E+00
DAV:   7    -0.170851690770E+03   -0.63774E+01   -0.37980E+01  8225   0.794E+01    0.802E+00
DAV:   8    -0.163035641039E+03    0.78160E+01   -0.25988E+01  8064   0.180E+01    0.166E+00
DAV:   9    -0.163267097693E+03   -0.23146E+00   -0.38861E+00  6488   0.788E+00    0.152E+00
DAV:  10    -0.163298605178E+03   -0.31507E-01   -0.65490E-01  6736   0.310E+00    0.123E+00
DAV:  11    -0.163289033478E+03    0.95717E-02   -0.60636E-02  6688   0.299E+00    0.819E-01
DAV:  12    -0.163281076577E+03    0.79569E-02   -0.43632E-02  6152   0.199E+00    0.240E-01
DAV:  13    -0.163284086056E+03   -0.30095E-02   -0.37438E-02  6352   0.147E+00    0.247E-01
DAV:  14    -0.163284051852E+03    0.34204E-04   -0.11710E-02  6368   0.963E-01    0.119E-01
DAV:  15    -0.163283663688E+03    0.38816E-03   -0.46496E-03  6496   0.485E-01    0.817E-02
DAV:  16    -0.163283362039E+03    0.30165E-03   -0.18123E-03  6456   0.519E-01    0.413E-02
DAV:  17    -0.163283546729E+03   -0.18469E-03   -0.90846E-04  7064   0.219E-01    0.372E-02
DAV:  18    -0.163284083223E+03   -0.53649E-03   -0.67100E-04  6200   0.197E-01    0.246E-02
DAV:  19    -0.163284446394E+03   -0.36317E-03   -0.59506E-04  5976   0.206E-01    0.137E-02
DAV:  20    -0.163284678874E+03   -0.23248E-03   -0.13415E-04  6608   0.132E-01    0.140E-02
DAV:  21    -0.163285716836E+03   -0.10380E-02   -0.92819E-04  7776   0.741E-01    0.585E-02
DAV:  22    -0.163287410269E+03   -0.16934E-02   -0.62539E-04  6784   0.555E-01    0.100E-01
DAV:  23    -0.163286613888E+03    0.79638E-03   -0.35560E-04  6368   0.360E-01    0.750E-02
DAV:  24    -0.163286326294E+03    0.28759E-03   -0.41801E-05  6720   0.121E-01    0.654E-02
DAV:  25    -0.163285869301E+03    0.45699E-03   -0.85051E-05  6960   0.197E-01    0.490E-02
DAV:  26    -0.163285474317E+03    0.39498E-03   -0.12170E-04  4752   0.267E-01    0.292E-02
DAV:  27    -0.163285243978E+03    0.23034E-03   -0.25234E-04  5336   0.377E-01    0.876E-03
DAV:  28    -0.163285538013E+03   -0.29404E-03   -0.42893E-04  6656   0.474E-01    0.318E-02
DAV:  29    -0.163285655991E+03   -0.11798E-03   -0.31289E-04  6976   0.801E-02    0.378E-02
DAV:  30    -0.163285616355E+03    0.39637E-04   -0.37612E-05  6088   0.502E-02    0.359E-02
DAV:  31    -0.163285625788E+03   -0.94331E-05   -0.11650E-05  5616   0.181E-02    0.354E-02
DAV:  32    -0.163285653237E+03   -0.27449E-04   -0.73063E-07  3768   0.120E-02    0.361E-02
DAV:  33    -0.163285499421E+03    0.15382E-03   -0.86932E-05  5696   0.242E-01    0.170E-02
DAV:  34    -0.163285476590E+03    0.22831E-04   -0.36248E-05  5272   0.611E-02    0.104E-02
DAV:  35    -0.163285479424E+03   -0.28337E-05   -0.19078E-05  5888   0.137E-02    0.105E-02
DAV:  36    -0.163285479136E+03    0.28720E-06   -0.11513E-06  3440   0.626E-03
   1 F= -.16328548E+03 E0= -.16327323E+03  d E =-.163285E+03
       N       E                     dE             d eps       ncg     rms          rms(c)
DAV:   1    -0.163306037170E+03   -0.20558E-01   -0.88681E-01  6367   0.209E+00    0.877E-02
DAV:   2    -0.163307489109E+03   -0.14519E-02   -0.14878E-02  7576   0.627E-01    0.568E-02
DAV:   3    -0.163307664767E+03   -0.17566E-03   -0.35151E-03  6264   0.722E-01    0.406E-02
DAV:   4    -0.163307678393E+03   -0.13626E-04   -0.81879E-04  6424   0.310E-01    0.224E-02
DAV:   5    -0.163307754453E+03   -0.76060E-04   -0.73881E-04  6264   0.152E-01    0.124E-02
DAV:   6    -0.163307768403E+03   -0.13950E-04   -0.15449E-04  6576   0.102E-01    0.668E-03
DAV:   7    -0.163307776286E+03   -0.78825E-05   -0.60765E-05  7504   0.372E-02    0.417E-03
DAV:   8    -0.163307779602E+03   -0.33161E-05   -0.72564E-06  5184   0.204E-02    0.208E-03
DAV:   9    -0.163307782242E+03   -0.26405E-05   -0.18098E-06  4280   0.124E-02    0.131E-03
DAV:  10    -0.163307783721E+03   -0.14784E-05   -0.66088E-07  3648   0.925E-03    0.105E-03
DAV:  11    -0.163307785380E+03   -0.16595E-05   -0.33505E-07  3680   0.382E-03    0.960E-04
DAV:  12    -0.163307786698E+03   -0.13183E-05   -0.28140E-07  3576   0.333E-03    0.927E-04
DAV:  13    -0.163307787602E+03   -0.90363E-06   -0.14261E-07  3632   0.279E-03
   2 F= -.16330779E+03 E0= -.16329565E+03  d E =-.223085E-01
       N       E                     dE             d eps       ncg     rms          rms(c)
DAV:   1    -0.163348766725E+03   -0.40980E-01   -0.76725E+00  6348   0.607E+00    0.229E-01
DAV:   2    -0.163362635706E+03   -0.13869E-01   -0.14503E-01  7440   0.131E+00    0.130E-01
DAV:   3    -0.163363563942E+03   -0.92824E-03   -0.13602E-02  6248   0.120E+00    0.937E-02
DAV:   4    -0.163363522367E+03    0.41575E-04   -0.35623E-03  6400   0.866E-01    0.550E-02
DAV:   5    -0.163363718547E+03   -0.19618E-03   -0.27418E-03  6832   0.410E-01    0.253E-02
DAV:   6    -0.163363803338E+03   -0.84791E-04   -0.96316E-04  6120   0.213E-01    0.155E-02
DAV:   7    -0.163363825338E+03   -0.22001E-04   -0.26907E-04  7192   0.119E-01    0.113E-02
DAV:   8    -0.163363834003E+03   -0.86645E-05   -0.75027E-05  6824   0.523E-02    0.761E-03
DAV:   9    -0.163363838549E+03   -0.45463E-05   -0.15812E-05  5488   0.461E-02    0.251E-03
DAV:  10    -0.163363842073E+03   -0.35238E-05   -0.89060E-06  5376   0.198E-02    0.171E-03
DAV:  11    -0.163363845358E+03   -0.32847E-05   -0.28736E-06  4376   0.103E-02    0.137E-03
DAV:  12    -0.163363849656E+03   -0.42980E-05   -0.75033E-07  3752   0.904E-03    0.113E-03
DAV:  13    -0.163363851169E+03   -0.15134E-05   -0.55411E-07  3776   0.478E-03    0.109E-03
DAV:  14    -0.163363851825E+03   -0.65587E-06   -0.11166E-07  3528   0.290E-03
   3 F= -.16336385E+03 E0= -.16335225E+03  d E =-.560642E-01
       N       E                     dE             d eps       ncg     rms          rms(c)
DAV:   1    -0.163380171867E+03   -0.16321E-01   -0.76997E-01  6276   0.175E+00    0.605E-02
DAV:   2    -0.163381392337E+03   -0.12205E-02   -0.12813E-02  7408   0.364E-01    0.326E-02
DAV:   3    -0.163381496995E+03   -0.10466E-03   -0.15402E-03  6232   0.438E-01    0.239E-02
DAV:   4    -0.163381494621E+03    0.23745E-05   -0.37532E-04  6384   0.228E-01    0.124E-02
DAV:   5    -0.163381520520E+03   -0.25899E-04   -0.27132E-04  6840   0.830E-02    0.796E-03
DAV:   6    -0.163381524877E+03   -0.43564E-05   -0.49054E-05  6272   0.638E-02    0.372E-03
DAV:   7    -0.163381526317E+03   -0.14400E-05   -0.16583E-05  5840   0.290E-02    0.234E-03
DAV:   8    -0.163381526994E+03   -0.67722E-06   -0.47483E-06  4728   0.125E-02
   4 F= -.16338153E+03 E0= -.16337014E+03  d E =-.176752E-01
       N       E                     dE             d eps       ncg     rms          rms(c)
DAV:   1    -0.163419932870E+03   -0.38407E-01   -0.62429E+00  6240   0.488E+00    0.168E-01
DAV:   2    -0.163430260687E+03   -0.10328E-01   -0.10824E-01  7376   0.105E+00    0.910E-02
DAV:   3    -0.163431287611E+03   -0.10269E-02   -0.14362E-02  6248   0.114E+00    0.651E-02
DAV:   4    -0.163431347665E+03   -0.60054E-04   -0.33780E-03  6487   0.629E-01    0.359E-02
DAV:   5    -0.163431547364E+03   -0.19970E-03   -0.21773E-03  6736   0.245E-01    0.235E-02
DAV:   6    -0.163431578665E+03   -0.31301E-04   -0.36497E-04  6168   0.183E-01    0.986E-03
DAV:   7    -0.163431587740E+03   -0.90746E-05   -0.11206E-04  7040   0.863E-02    0.518E-03
DAV:   8    -0.163431593480E+03   -0.57406E-05   -0.47339E-05  5720   0.399E-02    0.395E-03
DAV:   9    -0.163431595613E+03   -0.21331E-05   -0.10390E-05  5232   0.369E-02    0.179E-03
DAV:  10    -0.163431597882E+03   -0.22683E-05   -0.68826E-06  6304   0.117E-02    0.153E-03
DAV:  11    -0.163431599031E+03   -0.11494E-05   -0.10758E-06  3608   0.616E-03    0.128E-03
DAV:  12    -0.163431601022E+03   -0.19906E-05   -0.28968E-07  3663   0.992E-03    0.998E-04
DAV:  13    -0.163431601647E+03   -0.62567E-06   -0.18847E-07  3592   0.338E-03
   5 F= -.16343160E+03 E0= -.16342085E+03  d E =-.500747E-01
       N       E                     dE             d eps       ncg     rms          rms(c)
DAV:   1    -0.163398710525E+03    0.32890E-01   -0.21309E+00  6233   0.286E+00    0.992E-02
DAV:   2    -0.163402176197E+03   -0.34657E-02   -0.36175E-02  7566   0.570E-01    0.529E-02
DAV:   3    -0.163402369572E+03   -0.19337E-03   -0.32951E-03  6215   0.660E-01    0.392E-02
DAV:   4    -0.163402339597E+03    0.29975E-04   -0.70785E-04  6309   0.366E-01    0.207E-02
DAV:   5    -0.163402388721E+03   -0.49124E-04   -0.56594E-04  7048   0.139E-01    0.125E-02
DAV:   6    -0.163402403176E+03   -0.14455E-04   -0.13281E-04  6000   0.817E-02    0.626E-03
DAV:   7    -0.163402406145E+03   -0.29685E-05   -0.30914E-05  5960   0.514E-02    0.352E-03
DAV:   8    -0.163402408133E+03   -0.19887E-05   -0.16330E-05  5790   0.228E-02    0.274E-03
DAV:   9    -0.163402408941E+03   -0.80798E-06   -0.28673E-06  4519   0.183E-02
   6 F= -.16340241E+03 E0= -.16339128E+03  d E =0.291927E-01
       N       E                     dE             d eps       ncg     rms          rms(c)
DAV:   1    -0.163438783575E+03   -0.36375E-01   -0.53636E+00  6241   0.447E+00    0.154E-01
DAV:   2    -0.163447615093E+03   -0.88315E-02   -0.92398E-02  7294   0.942E-01    0.826E-02
DAV:   3    -0.163448518982E+03   -0.90389E-03   -0.12421E-02  6247   0.102E+00    0.586E-02
DAV:   4    -0.163448580176E+03   -0.61195E-04   -0.28036E-03  6565   0.572E-01    0.331E-02
DAV:   5    -0.163448740145E+03   -0.15997E-03   -0.17629E-03  6672   0.220E-01    0.220E-02
DAV:   6    -0.163448766545E+03   -0.26400E-04   -0.30116E-04  6175   0.155E-01    0.929E-03
DAV:   7    -0.163448772791E+03   -0.62466E-05   -0.83181E-05  6880   0.826E-02    0.447E-03
DAV:   8    -0.163448777562E+03   -0.47713E-05   -0.44497E-05  5704   0.378E-02    0.356E-03
DAV:   9    -0.163448778835E+03   -0.12730E-05   -0.92433E-06  4960   0.323E-02    0.174E-03
DAV:  10    -0.163448780198E+03   -0.13630E-05   -0.53735E-06  5600   0.108E-02    0.135E-03
DAV:  11    -0.163448780870E+03   -0.67173E-06   -0.96702E-07  3624   0.754E-03
   7 F= -.16344878E+03 E0= -.16343825E+03  d E =-.463719E-01
       N       E                     dE             d eps       ncg     rms          rms(c)
DAV:   1    -0.163438753739E+03    0.10026E-01   -0.23288E-01  6226   0.969E-01    0.331E-02
DAV:   2    -0.163439139001E+03   -0.38526E-03   -0.40079E-03  7688   0.189E-01    0.176E-02
DAV:   3    -0.163439157979E+03   -0.18978E-04   -0.32780E-04  6215   0.207E-01    0.128E-02
DAV:   4    -0.163439155380E+03    0.25983E-05   -0.66216E-05  6318   0.119E-01    0.695E-03
DAV:   5    -0.163439160156E+03   -0.47754E-05   -0.55482E-05  7352   0.446E-02    0.415E-03
DAV:   6    -0.163439161984E+03   -0.18284E-05   -0.13122E-05  5902   0.256E-02    0.231E-03
DAV:   7    -0.163439162534E+03   -0.54998E-06   -0.28582E-06  4263   0.174E-02
   8 F= -.16343916E+03 E0= -.16342850E+03  d E =0.961834E-02
       N       E                     dE             d eps       ncg     rms          rms(c)
DAV:   1    -0.163484817941E+03   -0.45656E-01   -0.22294E+01  6240   0.931E+00    0.318E-01
DAV:   2    -0.163526159031E+03   -0.41341E-01   -0.43146E-01  7096   0.203E+00    0.175E-01
DAV:   3    -0.163531087020E+03   -0.49280E-02   -0.63575E-02  6248   0.203E+00    0.116E-01
DAV:   4    -0.163531766008E+03   -0.67899E-03   -0.14645E-02  6672   0.120E+00    0.713E-02
DAV:   5    -0.163532521051E+03   -0.75504E-03   -0.85119E-03  7088   0.516E-01    0.563E-02
DAV:   6    -0.163532631934E+03   -0.11088E-03   -0.12716E-03  6191   0.293E-01    0.226E-02
DAV:   7    -0.163532656105E+03   -0.24171E-04   -0.34495E-04  6864   0.193E-01    0.938E-03
DAV:   8    -0.163532675690E+03   -0.19584E-04   -0.20234E-04  6088   0.105E-01    0.715E-03
DAV:   9    -0.163532682722E+03   -0.70327E-05   -0.60080E-05  5952   0.646E-02    0.420E-03
DAV:  10    -0.163532689454E+03   -0.67314E-05   -0.34921E-05  7200   0.255E-02    0.317E-03
DAV:  11    -0.163532691924E+03   -0.24702E-05   -0.19759E-06  4160   0.144E-02    0.183E-03
DAV:  12    -0.163532695045E+03   -0.31215E-05   -0.58834E-07  3710   0.795E-03    0.124E-03
DAV:  13    -0.163532697499E+03   -0.24538E-05   -0.41208E-07  3720   0.615E-03    0.105E-03
DAV:  14    -0.163532699942E+03   -0.24424E-05   -0.28649E-07  3709   0.492E-03    0.102E-03
DAV:  15    -0.163532701568E+03   -0.16264E-05   -0.23818E-07  3736   0.360E-03    0.984E-04
DAV:  16    -0.163532702630E+03   -0.10623E-05   -0.12436E-07  3654   0.277E-03    0.913E-04
DAV:  17    -0.163532703144E+03   -0.51424E-06   -0.68479E-08  3696   0.194E-03
   9 F= -.16353270E+03 E0= -.16352313E+03  d E =-.935406E-01
       N       E                     dE             d eps       ncg     rms          rms(c)
DAV:   1    -0.163447917113E+03    0.84786E-01   -0.10888E+01  6216   0.651E+00    0.224E-01
DAV:   2    -0.163466727817E+03   -0.18811E-01   -0.19581E-01  7544   0.124E+00    0.117E-01
DAV:   3    -0.163467413768E+03   -0.68595E-03   -0.12575E-02  6207   0.134E+00    0.852E-02
DAV:   4    -0.163467348262E+03    0.65507E-04   -0.36256E-03  6406   0.755E-01    0.482E-02
DAV:   5    -0.163467520127E+03   -0.17187E-03   -0.21172E-03  7136   0.324E-01    0.272E-02
DAV:   6    -0.163467586278E+03   -0.66151E-04   -0.65126E-04  6285   0.164E-01    0.129E-02
DAV:   7    -0.163467599245E+03   -0.12967E-04   -0.12909E-04  6840   0.947E-02    0.813E-03
DAV:   8    -0.163467606322E+03   -0.70770E-05   -0.43169E-05  6200   0.530E-02    0.541E-03
DAV:   9    -0.163467612747E+03   -0.64255E-05   -0.16049E-05  5351   0.412E-02    0.173E-03
DAV:  10    -0.163467616513E+03   -0.37659E-05   -0.13043E-05  6424   0.187E-02    0.170E-03
DAV:  11    -0.163467617829E+03   -0.13159E-05   -0.14904E-06  3824   0.783E-03    0.142E-03
DAV:  12    -0.163467620720E+03   -0.28913E-05   -0.43310E-07  3702   0.608E-03    0.110E-03
DAV:  13    -0.163467623789E+03   -0.30682E-05   -0.49871E-07  3782   0.347E-03    0.983E-04
DAV:  14    -0.163467624694E+03   -0.90527E-06   -0.18492E-07  3768   0.342E-03
  10 F= -.16346762E+03 E0= -.16345731E+03  d E =0.650785E-01
       N       E                     dE             d eps       ncg     rms          rms(c)
DAV:   1    -0.163478306875E+03   -0.10683E-01   -0.32363E-01  6339   0.966E-01    0.347E-02
DAV:   2    -0.163478848700E+03   -0.54183E-03   -0.56127E-03  7791   0.190E-01    0.177E-02
DAV:   3    -0.163478875945E+03   -0.27245E-04   -0.42365E-04  6117   0.216E-01    0.131E-02
DAV:   4    -0.163478874355E+03    0.15901E-05   -0.82574E-05  6852   0.121E-01    0.795E-03
DAV:   5    -0.163478878725E+03   -0.43694E-05   -0.47976E-05  6712   0.413E-02    0.456E-03
DAV:   6    -0.163478880200E+03   -0.14752E-05   -0.11833E-05  6056   0.291E-02    0.209E-03
DAV:   7    -0.163478880534E+03   -0.33416E-06   -0.26112E-06  4512   0.168E-02
  11 F= -.16347888E+03 E0= -.16346870E+03  d E =-.112558E-01
       N       E                     dE             d eps       ncg     rms          rms(c)
DAV:   1    -0.163445518015E+03    0.33362E-01   -0.22814E+00  6313   0.248E+00    0.917E-02
DAV:   2    -0.163449284417E+03   -0.37664E-02   -0.39184E-02  7807   0.480E-01    0.462E-02
DAV:   3    -0.163449428709E+03   -0.14429E-03   -0.25116E-03  6157   0.583E-01    0.344E-02
DAV:   4    -0.163449410831E+03    0.17879E-04   -0.62748E-04  6759   0.306E-01    0.194E-02
DAV:   5    -0.163449447639E+03   -0.36808E-04   -0.42305E-04  6712   0.106E-01    0.115E-02
DAV:   6    -0.163449455500E+03   -0.78612E-05   -0.78297E-05  6364   0.701E-02    0.487E-03
DAV:   7    -0.163449456891E+03   -0.13910E-05   -0.18020E-05  5960   0.391E-02    0.259E-03
DAV:   8    -0.163449457767E+03   -0.87573E-06   -0.62257E-06  5048   0.171E-02
  12 F= -.16344946E+03 E0= -.16343893E+03  d E =0.294228E-01
       N       E                     dE             d eps       ncg     rms          rms(c)
DAV:   1    -0.163188420910E+03    0.26104E+00   -0.54126E+01  6257   0.124E+01    0.485E-01
DAV:   2    -0.163307559443E+03   -0.11914E+00   -0.12273E+00  7367   0.276E+00    0.245E-01
DAV:   3    -0.163313488888E+03   -0.59294E-02   -0.10203E-01  6304   0.350E+00    0.191E-01
DAV:   4    -0.163314567996E+03   -0.10791E-02   -0.38360E-02  6413   0.166E+00    0.110E-01
DAV:   5    -0.163315904596E+03   -0.13366E-02   -0.13996E-02  6174   0.691E-01    0.781E-02
DAV:   6    -0.163316218918E+03   -0.31432E-03   -0.33246E-03  6319   0.478E-01    0.313E-02
DAV:   7    -0.163316381266E+03   -0.16235E-03   -0.16208E-03  7272   0.215E-01    0.148E-02
DAV:   8    -0.163316412213E+03   -0.30948E-04   -0.20106E-04  6192   0.115E-01    0.859E-03
DAV:   9    -0.163316436523E+03   -0.24309E-04   -0.59240E-05  6264   0.640E-02    0.489E-03
DAV:  10    -0.163316460643E+03   -0.24121E-04   -0.23273E-05  5720   0.394E-02    0.270E-03
DAV:  11    -0.163316474505E+03   -0.13861E-04   -0.93966E-06  5439   0.238E-02    0.193E-03
DAV:  12    -0.163316485951E+03   -0.11446E-04   -0.57968E-06  5215   0.153E-02    0.173E-03
DAV:  13    -0.163316496797E+03   -0.10847E-04   -0.19187E-06  4103   0.120E-02    0.133E-03
DAV:  14    -0.163316505585E+03   -0.87881E-05   -0.14339E-06  3887   0.550E-03    0.119E-03
DAV:  15    -0.163316510000E+03   -0.44146E-05   -0.63085E-07  3815   0.715E-03    0.102E-03
DAV:  16    -0.163316512564E+03   -0.25643E-05   -0.54724E-07  3831   0.310E-03    0.975E-04
DAV:  17    -0.163316513286E+03   -0.72196E-06   -0.16852E-07  3768   0.384E-03
  13 F= -.16331651E+03 E0= -.16330451E+03  d E =0.132944E+00
       N       E                     dE             d eps       ncg     rms          rms(c)
DAV:   1    -0.162477952035E+03    0.83856E+00   -0.23769E+02  6425   0.286E+01    0.986E-01
DAV:   2    -0.163064793521E+03   -0.58684E+00   -0.60078E+00  7152   0.617E+00    0.555E-01
DAV:   3    -0.163094314473E+03   -0.29521E-01   -0.60635E-01  6376   0.858E+00    0.462E-01
DAV:   4    -0.163097925966E+03   -0.36115E-02   -0.24022E-01  6477   0.355E+00    0.221E-01
DAV:   5    -0.163105808172E+03   -0.78822E-02   -0.80857E-02  6383   0.141E+00    0.170E-01
DAV:   6    -0.163106783141E+03   -0.97497E-03   -0.10996E-02  6735   0.914E-01    0.888E-02
DAV:   7    -0.163107152379E+03   -0.36924E-03   -0.36183E-03  6816   0.474E-01    0.260E-02
DAV:   8    -0.163107296762E+03   -0.14438E-03   -0.12981E-03  6384   0.282E-01    0.200E-02
DAV:   9    -0.163107350273E+03   -0.53511E-04   -0.39729E-04  6576   0.162E-01    0.117E-02
DAV:  10    -0.163107416050E+03   -0.65777E-04   -0.19140E-04  7400   0.863E-02    0.726E-03
DAV:  11    -0.163107454718E+03   -0.38669E-04   -0.60215E-05  5984   0.536E-02    0.377E-03
DAV:  12    -0.163107478058E+03   -0.23340E-04   -0.16637E-05  5416   0.424E-02    0.250E-03
DAV:  13    -0.163107495108E+03   -0.17050E-04   -0.12700E-05  5976   0.162E-02    0.225E-03
DAV:  14    -0.163107512782E+03   -0.17673E-04   -0.28011E-06  4328   0.153E-02    0.165E-03
DAV:  15    -0.163107529117E+03   -0.16335E-04   -0.29495E-06  4032   0.110E-02    0.132E-03
DAV:  16    -0.163107531825E+03   -0.27085E-05   -0.11659E-06  4200   0.753E-03    0.116E-03
DAV:  17    -0.163107535308E+03   -0.34823E-05   -0.51220E-07  3726   0.724E-03    0.101E-03
DAV:  18    -0.163107537647E+03   -0.23395E-05   -0.35832E-07  3816   0.281E-03    0.939E-04
DAV:  19    -0.163107539182E+03   -0.15352E-05   -0.23972E-07  3696   0.848E-03    0.110E-03
DAV:  20    -0.163107539757E+03   -0.57496E-06   -0.82818E-08  3744   0.360E-03
  14 F= -.16310754E+03 E0= -.16309533E+03  d E =0.208974E+00
       N       E                     dE             d eps       ncg     rms          rms(c)
DAV:   1    -0.163109598111E+03   -0.20589E-02   -0.20137E-01  6215   0.993E-01    0.359E-02
DAV:   2    -0.163109902346E+03   -0.30423E-03   -0.32718E-03  7248   0.242E-01    0.197E-02
DAV:   3    -0.163109938514E+03   -0.36168E-04   -0.42964E-04  6248   0.252E-01    0.143E-02
DAV:   4    -0.163109935540E+03    0.29737E-05   -0.11479E-04  6320   0.170E-01    0.796E-03
DAV:   5    -0.163109943529E+03   -0.79886E-05   -0.10386E-04  7536   0.648E-02    0.509E-03
DAV:   6    -0.163109946318E+03   -0.27886E-05   -0.28081E-05  6000   0.269E-02    0.312E-03
DAV:   7    -0.163109946613E+03   -0.29521E-06   -0.45927E-06  4415   0.212E-02
  15 F= -.16310995E+03 E0= -.16309765E+03  d E =-.240686E-02
       N       E                     dE             d eps       ncg     rms          rms(c)
DAV:   1    -0.163100238070E+03    0.97082E-02   -0.18024E+01  6162   0.963E+00    0.355E-01
DAV:   2    -0.163125747007E+03   -0.25509E-01   -0.27380E-01  7375   0.270E+00    0.212E-01
DAV:   3    -0.163130602843E+03   -0.48558E-02   -0.64324E-02  6254   0.284E+00    0.159E-01
DAV:   4    -0.163130513299E+03    0.89544E-04   -0.21292E-02  6430   0.173E+00    0.752E-02
DAV:   5    -0.163131984075E+03   -0.14708E-02   -0.16007E-02  6560   0.679E-01    0.592E-02
DAV:   6    -0.163132306548E+03   -0.32247E-03   -0.37648E-03  6640   0.491E-01    0.370E-02
DAV:   7    -0.163132407327E+03   -0.10078E-03   -0.10779E-03  7103   0.231E-01    0.162E-02
DAV:   8    -0.163132441911E+03   -0.34585E-04   -0.37331E-04  6576   0.128E-01    0.758E-03
DAV:   9    -0.163132450750E+03   -0.88391E-05   -0.77254E-05  6144   0.803E-02    0.532E-03
DAV:  10    -0.163132456967E+03   -0.62164E-05   -0.32764E-05  6144   0.420E-02    0.358E-03
DAV:  11    -0.163132462033E+03   -0.50666E-05   -0.93908E-06  4936   0.225E-02    0.144E-03
DAV:  12    -0.163132464191E+03   -0.21574E-05   -0.45895E-06  4920   0.138E-02    0.136E-03
DAV:  13    -0.163132465730E+03   -0.15388E-05   -0.11722E-06  3863   0.101E-02    0.117E-03
DAV:  14    -0.163132467905E+03   -0.21752E-05   -0.34200E-07  3648   0.590E-03    0.969E-04
DAV:  15    -0.163132469292E+03   -0.13869E-05   -0.25955E-07  3688   0.422E-03    0.921E-04
DAV:  16    -0.163132470042E+03   -0.75012E-06   -0.26220E-07  3616   0.248E-03
  16 F= -.16313247E+03 E0= -.16311980E+03  d E =-.225234E-01
       N       E                     dE             d eps       ncg     rms          rms(c)
DAV:   1    -0.163139146802E+03   -0.66775E-02   -0.23121E+00  6164   0.358E+00    0.137E-01
DAV:   2    -0.163142316481E+03   -0.31697E-02   -0.33066E-02  7639   0.104E+00    0.843E-02
DAV:   3    -0.163142753992E+03   -0.43751E-03   -0.79064E-03  6222   0.112E+00    0.629E-02
DAV:   4    -0.163142761884E+03   -0.78916E-05   -0.29055E-03  6437   0.578E-01    0.274E-02
DAV:   5    -0.163142952961E+03   -0.19108E-03   -0.20162E-03  6175   0.241E-01    0.194E-02
DAV:   6    -0.163142991672E+03   -0.38711E-04   -0.46580E-04  6472   0.164E-01    0.117E-02
DAV:   7    -0.163143005666E+03   -0.13994E-04   -0.15195E-04  7088   0.755E-02    0.604E-03
DAV:   8    -0.163143009799E+03   -0.41332E-05   -0.39768E-05  6080   0.439E-02    0.317E-03
DAV:   9    -0.163143010812E+03   -0.10137E-05   -0.79462E-06  5000   0.333E-02    0.185E-03
DAV:  10    -0.163143011691E+03   -0.87901E-06   -0.48788E-06  5072   0.150E-02
  17 F= -.16314301E+03 E0= -.16313050E+03  d E =-.105416E-01
       N       E                     dE             d eps       ncg     rms          rms(c)
DAV:   1    -0.163106689430E+03    0.36321E-01   -0.34345E+01  6153   0.140E+01    0.525E-01
DAV:   2    -0.163155547199E+03   -0.48858E-01   -0.51861E-01  7184   0.392E+00    0.320E-01
DAV:   3    -0.163165873436E+03   -0.10326E-01   -0.13843E-01  6342   0.380E+00    0.236E-01
DAV:   4    -0.163165248494E+03    0.62494E-03   -0.36417E-02  6567   0.254E+00    0.109E-01
DAV:   5    -0.163167918263E+03   -0.26698E-02   -0.28766E-02  6455   0.102E+00    0.787E-02
DAV:   6    -0.163168592029E+03   -0.67377E-03   -0.77170E-03  6552   0.694E-01    0.485E-02
DAV:   7    -0.163168756424E+03   -0.16439E-03   -0.19899E-03  7016   0.377E-01    0.208E-02
DAV:   8    -0.163168855013E+03   -0.98589E-04   -0.10248E-03  6480   0.201E-01    0.121E-02
DAV:   9    -0.163168877141E+03   -0.22128E-04   -0.22236E-04  6792   0.126E-01    0.771E-03
DAV:  10    -0.163168894399E+03   -0.17258E-04   -0.11995E-04  7456   0.612E-02    0.503E-03
DAV:  11    -0.163168900128E+03   -0.57294E-05   -0.11973E-05  5576   0.260E-02    0.222E-03
DAV:  12    -0.163168902064E+03   -0.19366E-05   -0.39031E-06  5040   0.207E-02    0.167E-03
DAV:  13    -0.163168903771E+03   -0.17065E-05   -0.12941E-06  4024   0.121E-02    0.124E-03
DAV:  14    -0.163168905652E+03   -0.18811E-05   -0.55088E-07  3768   0.693E-03    0.885E-04
DAV:  15    -0.163168906596E+03   -0.94413E-06   -0.54070E-07  3656   0.399E-03
  18 F= -.16316891E+03 E0= -.16315785E+03  d E =-.258949E-01
       N       E                     dE             d eps       ncg     rms          rms(c)
DAV:   1    -0.163169359103E+03   -0.45345E-03   -0.22609E+00  6164   0.358E+00    0.137E-01
DAV:   2    -0.163172534439E+03   -0.31753E-02   -0.33089E-02  7256   0.926E-01    0.833E-02
DAV:   3    -0.163173057380E+03   -0.52294E-03   -0.69149E-03  6230   0.106E+00    0.617E-02
DAV:   4    -0.163173010365E+03    0.47016E-04   -0.20808E-03  6350   0.615E-01    0.283E-02
DAV:   5    -0.163173201121E+03   -0.19076E-03   -0.20299E-03  6943   0.236E-01    0.192E-02
DAV:   6    -0.163173237954E+03   -0.36833E-04   -0.42185E-04  6408   0.148E-01    0.118E-02
DAV:   7    -0.163173247073E+03   -0.91190E-05   -0.10775E-04  6759   0.882E-02    0.589E-03
DAV:   8    -0.163173251625E+03   -0.45522E-05   -0.43730E-05  6552   0.435E-02    0.281E-03
DAV:   9    -0.163173252516E+03   -0.89080E-06   -0.69547E-06  4624   0.253E-02
  19 F= -.16317325E+03 E0= -.16316264E+03  d E =-.434592E-02
       N       E                     dE             d eps       ncg     rms          rms(c)
DAV:   1    -0.163171191223E+03    0.20604E-02   -0.35496E+00  6155   0.447E+00    0.172E-01
DAV:   2    -0.163176159165E+03   -0.49679E-02   -0.51897E-02  7080   0.118E+00    0.105E-01
DAV:   3    -0.163177069249E+03   -0.91008E-03   -0.11646E-02  6269   0.126E+00    0.769E-02
DAV:   4    -0.163177032730E+03    0.36519E-04   -0.32719E-03  6432   0.757E-01    0.361E-02
DAV:   5    -0.163177314508E+03   -0.28178E-03   -0.30122E-03  6710   0.296E-01    0.238E-02
DAV:   6    -0.163177373827E+03   -0.59319E-04   -0.69454E-04  6352   0.198E-01    0.144E-02
DAV:   7    -0.163177390914E+03   -0.17086E-04   -0.19943E-04  7176   0.117E-01    0.750E-03
DAV:   8    -0.163177399135E+03   -0.82218E-05   -0.83134E-05  6760   0.575E-02    0.381E-03
DAV:   9    -0.163177400635E+03   -0.14999E-05   -0.12701E-05  5112   0.315E-02    0.184E-03
DAV:  10    -0.163177401362E+03   -0.72706E-06   -0.51429E-06  4656   0.192E-02
  20 F= -.16317740E+03 E0= -.16316731E+03  d E =-.414885E-02
       N       E                     dE             d eps       ncg     rms          rms(c)
DAV:   1    -0.163178356739E+03   -0.95610E-03   -0.75095E-01  6155   0.202E+00    0.786E-02
DAV:   2    -0.163179469511E+03   -0.11128E-02   -0.11541E-02  7304   0.521E-01    0.476E-02
DAV:   3    -0.163179621002E+03   -0.15149E-03   -0.19604E-03  6204   0.582E-01    0.351E-02
DAV:   4    -0.163179607284E+03    0.13717E-04   -0.56227E-04  6568   0.333E-01    0.167E-02
DAV:   5    -0.163179658968E+03   -0.51684E-04   -0.55106E-04  7310   0.125E-01    0.985E-03
DAV:   6    -0.163179669033E+03   -0.10065E-04   -0.11935E-04  6256   0.832E-02    0.552E-03
DAV:   7    -0.163179671874E+03   -0.28405E-05   -0.33612E-05  6224   0.447E-02    0.312E-03
DAV:   8    -0.163179673043E+03   -0.11687E-05   -0.10008E-05  5736   0.186E-02    0.158E-03
DAV:   9    -0.163179673143E+03   -0.10020E-06   -0.12310E-06  3471   0.124E-02
  21 F= -.16317967E+03 E0= -.16316980E+03  d E =-.227178E-02
       N       E                     dE             d eps       ncg     rms          rms(c)
DAV:   1    -0.163179504996E+03    0.16805E-03   -0.19342E+00  6152   0.322E+00    0.124E-01
DAV:   2    -0.163182406939E+03   -0.29019E-02   -0.30233E-02  7279   0.818E-01    0.739E-02
DAV:   3    -0.163182791966E+03   -0.38503E-03   -0.47262E-03  6220   0.837E-01    0.541E-02
DAV:   4    -0.163182760153E+03    0.31813E-04   -0.13069E-03  6535   0.517E-01    0.267E-02
DAV:   5    -0.163182865868E+03   -0.10572E-03   -0.11617E-03  7174   0.190E-01    0.149E-02
DAV:   6    -0.163182889512E+03   -0.23644E-04   -0.28289E-04  6232   0.137E-01    0.815E-03
DAV:   7    -0.163182895626E+03   -0.61135E-05   -0.77212E-05  6823   0.717E-02    0.470E-03
DAV:   8    -0.163182898384E+03   -0.27580E-05   -0.26277E-05  6368   0.263E-02    0.247E-03
DAV:   9    -0.163182898507E+03   -0.12318E-06   -0.22802E-06  4047   0.171E-02
  22 F= -.16318290E+03 E0= -.16317332E+03  d E =-.322536E-02
       N       E                     dE             d eps       ncg     rms          rms(c)
DAV:   1    -0.163184142713E+03   -0.12443E-02   -0.41399E-01  6179   0.148E+00    0.537E-02
DAV:   2    -0.163184785623E+03   -0.64291E-03   -0.66841E-03  7383   0.338E-01    0.311E-02
DAV:   3    -0.163184851972E+03   -0.66348E-04   -0.73416E-04  6179   0.341E-01    0.223E-02
DAV:   4    -0.163184843616E+03    0.83552E-05   -0.17206E-04  6455   0.221E-01    0.120E-02
DAV:   5    -0.163184859907E+03   -0.16291E-04   -0.19051E-04  8079   0.796E-02    0.628E-03
DAV:   6    -0.163184863626E+03   -0.37189E-05   -0.44710E-05  6008   0.489E-02    0.359E-03
DAV:   7    -0.163184864390E+03   -0.76386E-06   -0.10277E-05  5528   0.294E-02    0.223E-03
DAV:   8    -0.163184864581E+03   -0.19088E-06   -0.33088E-06  4359   0.983E-03
  23 F= -.16318486E+03 E0= -.16317540E+03  d E =-.196607E-02
       N       E                     dE             d eps       ncg     rms          rms(c)
DAV:   1    -0.163185413511E+03   -0.54912E-03   -0.18231E+00  6200   0.313E+00    0.109E-01
DAV:   2    -0.163188259630E+03   -0.28461E-02   -0.29720E-02  7320   0.668E-01    0.621E-02
DAV:   3    -0.163188524622E+03   -0.26499E-03   -0.29515E-03  6230   0.634E-01    0.428E-02
DAV:   4    -0.163188505472E+03    0.19149E-04   -0.63821E-04  6518   0.439E-01    0.246E-02
DAV:   5    -0.163188561165E+03   -0.55693E-04   -0.73415E-04  8254   0.160E-01    0.126E-02
DAV:   6    -0.163188576143E+03   -0.14977E-04   -0.17482E-04  5928   0.943E-02    0.732E-03
DAV:   7    -0.163188578269E+03   -0.21266E-05   -0.32145E-05  6568   0.586E-02    0.465E-03
DAV:   8    -0.163188579530E+03   -0.12603E-05   -0.15137E-05  5383   0.223E-02    0.211E-03
DAV:   9    -0.163188579632E+03   -0.10261E-06   -0.23007E-06  3991   0.140E-02
  24 F= -.16318858E+03 E0= -.16317932E+03  d E =-.371505E-02
       N       E                     dE             d eps       ncg     rms          rms(c)
DAV:   1    -0.163189909981E+03   -0.13305E-02   -0.24324E-01  6314   0.115E+00    0.367E-02
DAV:   2    -0.163190304282E+03   -0.39430E-03   -0.40880E-03  7328   0.216E-01    0.201E-02
DAV:   3    -0.163190324971E+03   -0.20689E-04   -0.25464E-04  6271   0.159E-01    0.121E-02
DAV:   4    -0.163190328530E+03   -0.35584E-05   -0.42716E-05  6364   0.127E-01    0.751E-03
DAV:   5    -0.163190330976E+03   -0.24457E-05   -0.46811E-05  8728   0.740E-02    0.441E-03
DAV:   6    -0.163190331592E+03   -0.61610E-06   -0.14598E-05  6175   0.345E-02    0.247E-03
DAV:   7    -0.163190332288E+03   -0.69663E-06   -0.80381E-06  5456   0.162E-02
  25 F= -.16319033E+03 E0= -.16318112E+03  d E =-.175266E-02
       N       E                     dE             d eps       ncg     rms          rms(c)
DAV:   1    -0.163190762671E+03   -0.43108E-03   -0.28876E+00  6335   0.400E+00    0.125E-01
DAV:   2    -0.163195509804E+03   -0.47471E-02   -0.49489E-02  7416   0.740E-01    0.680E-02
DAV:   3    -0.163195716960E+03   -0.20716E-03   -0.27951E-03  6400   0.475E-01    0.405E-02
DAV:   4    -0.163195745436E+03   -0.28476E-04   -0.42078E-04  6414   0.367E-01    0.219E-02
DAV:   5    -0.163195784796E+03   -0.39360E-04   -0.43021E-04  8503   0.227E-01    0.138E-02
DAV:   6    -0.163195780548E+03    0.42474E-05   -0.12178E-04  7176   0.138E-01    0.715E-03
DAV:   7    -0.163195788672E+03   -0.81231E-05   -0.88534E-05  6384   0.491E-02    0.590E-03
DAV:   8    -0.163195789254E+03   -0.58267E-06   -0.10147E-05  5464   0.271E-02    0.342E-03
DAV:   9    -0.163195789704E+03   -0.44948E-06   -0.42056E-06  4599   0.177E-02
  26 F= -.16319579E+03 E0= -.16318673E+03  d E =-.545742E-02
       N       E                     dE             d eps       ncg     rms          rms(c)
DAV:   1    -0.163196894188E+03   -0.11049E-02   -0.94224E-02  6412   0.719E-01    0.212E-02
DAV:   2    -0.163197049842E+03   -0.15565E-03   -0.16184E-03  7480   0.131E-01    0.116E-02
DAV:   3    -0.163197056380E+03   -0.65384E-05   -0.81705E-05  6271   0.928E-02    0.740E-03
DAV:   4    -0.163197057537E+03   -0.11564E-05   -0.16704E-05  6216   0.743E-02    0.494E-03
DAV:   5    -0.163197057775E+03   -0.23801E-06   -0.99837E-06  6616   0.464E-02    0.241E-03
DAV:   6    -0.163197058634E+03   -0.85925E-06   -0.76868E-06  6000   0.185E-02
  27 F= -.16319706E+03 E0= -.16318801E+03  d E =-.126893E-02
       N       E                     dE             d eps       ncg     rms          rms(c)
DAV:   1    -0.163196408062E+03    0.64971E-03   -0.54047E+00  6366   0.543E+00    0.163E-01
DAV:   2    -0.163205520679E+03   -0.91126E-02   -0.95052E-02  7493   0.101E+00    0.865E-02
DAV:   3    -0.163205862988E+03   -0.34231E-03   -0.45940E-03  6367   0.686E-01    0.549E-02
DAV:   4    -0.163205920588E+03   -0.57601E-04   -0.10287E-03  6255   0.552E-01    0.364E-02
DAV:   5    -0.163205905613E+03    0.14976E-04   -0.51441E-04  6759   0.374E-01    0.170E-02
DAV:   6    -0.163205951833E+03   -0.46220E-04   -0.52425E-04  6840   0.145E-01    0.106E-02
DAV:   7    -0.163205964964E+03   -0.13131E-04   -0.14147E-04  6960   0.579E-02    0.916E-03
DAV:   8    -0.163205966036E+03   -0.10721E-05   -0.18708E-05  5744   0.546E-02    0.542E-03
DAV:   9    -0.163205967460E+03   -0.14238E-05   -0.77974E-06  5591   0.279E-02    0.188E-03
DAV:  10    -0.163205968503E+03   -0.10429E-05   -0.63107E-06  5104   0.170E-02    0.160E-03
DAV:  11    -0.163205969108E+03   -0.60577E-06   -0.21393E-06  3886   0.111E-02
  28 F= -.16320597E+03 E0= -.16319699E+03  d E =-.891047E-02
       N       E                     dE             d eps       ncg     rms          rms(c)
DAV:   1    -0.163205558588E+03    0.40991E-03   -0.32310E-02  6454   0.425E-01    0.136E-02
DAV:   2    -0.163205613049E+03   -0.54460E-04   -0.56222E-04  7560   0.786E-02    0.699E-03
DAV:   3    -0.163205614856E+03   -0.18074E-05   -0.21371E-05  6343   0.460E-02    0.463E-03
DAV:   4    -0.163205615139E+03   -0.28292E-06   -0.65610E-06  5656   0.470E-02    0.301E-03
DAV:   5    -0.163205615247E+03   -0.10818E-06   -0.22748E-06  4271   0.286E-02    0.120E-03
DAV:   6    -0.163205615650E+03   -0.40286E-06   -0.31631E-06  4432   0.121E-02
  29 F= -.16320562E+03 E0= -.16319663E+03  d E =0.353458E-03
       N       E                     dE             d eps       ncg     rms          rms(c)
DAV:   1    -0.163183617304E+03    0.21998E-01   -0.65104E+00  6350   0.564E+00    0.176E-01
DAV:   2    -0.163194081863E+03   -0.10465E-01   -0.11144E-01  7320   0.114E+00    0.932E-02
DAV:   3    -0.163194692287E+03   -0.61042E-03   -0.82036E-03  6256   0.853E-01    0.556E-02
DAV:   4    -0.163194777229E+03   -0.84942E-04   -0.14601E-03  6376   0.611E-01    0.379E-02
DAV:   5    -0.163194797477E+03   -0.20249E-04   -0.96396E-04  6928   0.391E-01    0.229E-02
DAV:   6    -0.163194852378E+03   -0.54900E-04   -0.63753E-04  6567   0.170E-01    0.128E-02
DAV:   7    -0.163194875043E+03   -0.22666E-04   -0.23294E-04  6791   0.896E-02    0.939E-03
DAV:   8    -0.163194879566E+03   -0.45226E-05   -0.49087E-05  5920   0.675E-02    0.446E-03
DAV:   9    -0.163194882885E+03   -0.33188E-05   -0.27131E-05  6432   0.339E-02    0.230E-03
DAV:  10    -0.163194884163E+03   -0.12778E-05   -0.73113E-06  4912   0.129E-02    0.194E-03
DAV:  11    -0.163194884893E+03   -0.73026E-06   -0.68956E-07  3631   0.181E-02
  30 F= -.16319488E+03 E0= -.16318586E+03  d E =0.107308E-01
       N       E                     dE             d eps       ncg     rms          rms(c)
DAV:   1    -0.163194479693E+03    0.40447E-03   -0.60547E+00  6368   0.544E+00    0.170E-01
DAV:   2    -0.163204626561E+03   -0.10147E-01   -0.10782E-01  7366   0.109E+00    0.874E-02
DAV:   3    -0.163205091649E+03   -0.46509E-03   -0.62551E-03  6384   0.732E-01    0.539E-02
DAV:   4    -0.163205178548E+03   -0.86899E-04   -0.13805E-03  6191   0.557E-01    0.361E-02
DAV:   5    -0.163205180554E+03   -0.20064E-05   -0.62850E-04  6478   0.388E-01    0.195E-02
DAV:   6    -0.163205237473E+03   -0.56918E-04   -0.66322E-04  7032   0.166E-01    0.121E-02
DAV:   7    -0.163205259912E+03   -0.22440E-04   -0.23190E-04  7200   0.743E-02    0.101E-02
DAV:   8    -0.163205260991E+03   -0.10785E-05   -0.19027E-05  5616   0.581E-02    0.551E-03
DAV:   9    -0.163205262388E+03   -0.13969E-05   -0.94700E-06  6232   0.272E-02    0.184E-03
DAV:  10    -0.163205263380E+03   -0.99270E-06   -0.52206E-06  4928   0.107E-02
  31 F= -.16320526E+03 E0= -.16319627E+03  d E =-.103785E-01
       N       E                     dE             d eps       ncg     rms          rms(c)
DAV:   1    -0.163206218988E+03   -0.95660E-03   -0.62247E-02  6407   0.539E-01    0.169E-02
DAV:   2    -0.163206317646E+03   -0.98658E-04   -0.10590E-03  6952   0.109E-01    0.925E-03
DAV:   3    -0.163206323718E+03   -0.60721E-05   -0.80047E-05  6304   0.918E-02    0.532E-03
DAV:   4    -0.163206325501E+03   -0.17830E-05   -0.16125E-05  6152   0.559E-02    0.355E-03
DAV:   5    -0.163206326182E+03   -0.68107E-06   -0.97534E-06  6040   0.396E-02    0.240E-03
DAV:   6    -0.163206327124E+03   -0.94202E-06   -0.62980E-06  5032   0.200E-02
  32 F= -.16320633E+03 E0= -.16319734E+03  d E =-.106374E-02
       N       E                     dE             d eps       ncg     rms          rms(c)
DAV:   1    -0.163208952548E+03   -0.26264E-02   -0.19417E+00  6336   0.296E+00    0.948E-02
DAV:   2    -0.163212086279E+03   -0.31337E-02   -0.33645E-02  7167   0.609E-01    0.492E-02
DAV:   3    -0.163212253628E+03   -0.16735E-03   -0.22925E-03  6320   0.445E-01    0.293E-02
DAV:   4    -0.163212288749E+03   -0.35121E-04   -0.49907E-04  6256   0.300E-01    0.189E-02
DAV:   5    -0.163212301011E+03   -0.12262E-04   -0.25537E-04  6752   0.213E-01    0.117E-02
DAV:   6    -0.163212316560E+03   -0.15549E-04   -0.19794E-04  6624   0.111E-01    0.675E-03
DAV:   7    -0.163212328107E+03   -0.11547E-04   -0.11428E-04  7303   0.548E-02    0.588E-03
DAV:   8    -0.163212329501E+03   -0.13939E-05   -0.11770E-05  5407   0.283E-02    0.341E-03
DAV:   9    -0.163212330525E+03   -0.10249E-05   -0.28199E-06  4318   0.188E-02    0.135E-03
DAV:  10    -0.163212331131E+03   -0.60530E-06   -0.17000E-06  3895   0.106E-02
  33 F= -.16321233E+03 E0= -.16320333E+03  d E =-.600401E-02
       N       E                     dE             d eps       ncg     rms          rms(c)
DAV:   1    -0.163193393523E+03    0.18937E-01   -0.52854E+00  6304   0.488E+00    0.158E-01
DAV:   2    -0.163201843685E+03   -0.84502E-02   -0.90904E-02  7167   0.101E+00    0.823E-02
DAV:   3    -0.163202346248E+03   -0.50256E-03   -0.69413E-03  6248   0.751E-01    0.477E-02
DAV:   4    -0.163202423117E+03   -0.76869E-04   -0.12172E-03  6360   0.518E-01    0.312E-02
DAV:   5    -0.163202462827E+03   -0.39710E-04   -0.81338E-04  7070   0.335E-01    0.210E-02
DAV:   6    -0.163202495353E+03   -0.32525E-04   -0.44906E-04  6360   0.178E-01    0.113E-02
DAV:   7    -0.163202518677E+03   -0.23324E-04   -0.23891E-04  6696   0.957E-02    0.832E-03
DAV:   8    -0.163202524185E+03   -0.55083E-05   -0.60106E-05  5856   0.642E-02    0.391E-03
DAV:   9    -0.163202527477E+03   -0.32925E-05   -0.28467E-05  6040   0.333E-02    0.262E-03
DAV:  10    -0.163202528596E+03   -0.11185E-05   -0.59317E-06  5024   0.149E-02    0.174E-03
DAV:  11    -0.163202529335E+03   -0.73943E-06   -0.84718E-07  3542   0.150E-02
  34 F= -.16320253E+03 E0= -.16319353E+03  d E =0.980180E-02
       N       E                     dE             d eps       ncg     rms          rms(c)
DAV:   1    -0.163204525961E+03   -0.19974E-02   -0.41407E-01  6347   0.137E+00    0.443E-02
DAV:   2    -0.163205182747E+03   -0.65679E-03   -0.70543E-03  7158   0.282E-01    0.226E-02
DAV:   3    -0.163205221313E+03   -0.38566E-04   -0.49599E-04  6216   0.210E-01    0.135E-02
DAV:   4    -0.163205228705E+03   -0.73923E-05   -0.10356E-04  6231   0.144E-01    0.883E-03
DAV:   5    -0.163205231410E+03   -0.27049E-05   -0.56883E-05  6840   0.979E-02    0.547E-03
DAV:   6    -0.163205234767E+03   -0.33565E-05   -0.39510E-05  6367   0.477E-02    0.324E-03
DAV:   7    -0.163205236778E+03   -0.20115E-05   -0.20670E-05  6199   0.251E-02    0.281E-03
DAV:   8    -0.163205236903E+03   -0.12523E-06   -0.33217E-06  4334   0.165E-02
  35 F= -.16320524E+03 E0= -.16319624E+03  d E =-.270757E-02
       N       E                     dE             d eps       ncg     rms          rms(c)
DAV:   1    -0.163207674870E+03   -0.24381E-02   -0.81472E-01  6320   0.190E+00    0.615E-02
DAV:   2    -0.163208966542E+03   -0.12917E-02   -0.13923E-02  7015   0.395E-01    0.320E-02
DAV:   3    -0.163209040022E+03   -0.73480E-04   -0.10047E-03  6240   0.302E-01    0.187E-02
DAV:   4    -0.163209055530E+03   -0.15508E-04   -0.21554E-04  6312   0.195E-01    0.121E-02
DAV:   5    -0.163209061919E+03   -0.63896E-05   -0.11538E-04  6902   0.138E-01    0.781E-03
DAV:   6    -0.163209068363E+03   -0.64441E-05   -0.81883E-05  6528   0.732E-02    0.452E-03
DAV:   7    -0.163209073193E+03   -0.48297E-05   -0.49170E-05  7023   0.372E-02    0.392E-03
DAV:   8    -0.163209073938E+03   -0.74523E-06   -0.69943E-06  4567   0.207E-02
  36 F= -.16320907E+03 E0= -.16320008E+03  d E =-.383704E-02
       N       E                     dE             d eps       ncg     rms          rms(c)
DAV:   1    -0.163202522494E+03    0.65507E-02   -0.11656E+00  6312   0.227E+00    0.742E-02
DAV:   2    -0.163204346381E+03   -0.18239E-02   -0.19680E-02  7077   0.471E-01    0.382E-02
DAV:   3    -0.163204460319E+03   -0.11394E-03   -0.15532E-03  6247   0.358E-01    0.222E-02
DAV:   4    -0.163204476698E+03   -0.16380E-04   -0.27402E-04  6270   0.236E-01    0.142E-02
DAV:   5    -0.163204487047E+03   -0.10349E-04   -0.17783E-04  7022   0.156E-01    0.970E-03
DAV:   6    -0.163204493903E+03   -0.68557E-05   -0.10033E-04  6343   0.866E-02    0.529E-03
DAV:   7    -0.163204499676E+03   -0.57731E-05   -0.59414E-05  6808   0.457E-02    0.425E-03
DAV:   8    -0.163204500909E+03   -0.12327E-05   -0.14128E-05  4920   0.301E-02    0.210E-03
DAV:   9    -0.163204501606E+03   -0.69765E-06   -0.66872E-06  4784   0.173E-02
  37 F= -.16320450E+03 E0= -.16319550E+03  d E =0.457233E-02
       N       E                     dE             d eps       ncg     rms          rms(c)
DAV:   1    -0.163206765436E+03   -0.22645E-02   -0.62482E-01  6322   0.165E+00    0.543E-02
DAV:   2    -0.163207753655E+03   -0.98822E-03   -0.10652E-02  7054   0.347E-01    0.275E-02
DAV:   3    -0.163207811866E+03   -0.58212E-04   -0.77456E-04  6264   0.258E-01    0.163E-02
DAV:   4    -0.163207823726E+03   -0.11859E-04   -0.16580E-04  6222   0.169E-01    0.102E-02
DAV:   5    -0.163207829166E+03   -0.54397E-05   -0.87232E-05  6950   0.117E-01    0.671E-03
DAV:   6    -0.163207833463E+03   -0.42974E-05   -0.59874E-05  6632   0.650E-02    0.396E-03
DAV:   7    -0.163207837065E+03   -0.36022E-05   -0.36671E-05  6815   0.317E-02    0.342E-03
DAV:   8    -0.163207837443E+03   -0.37819E-06   -0.46903E-06  4239   0.175E-02
  38 F= -.16320784E+03 E0= -.16319884E+03  d E =-.333584E-02
       N       E                     dE             d eps       ncg     rms          rms(c)
DAV:   1    -0.163208471126E+03   -0.63406E-03   -0.25217E-02  6350   0.326E-01    0.107E-02
DAV:   2    -0.163208511053E+03   -0.39927E-04   -0.43558E-04  6831   0.725E-02    0.579E-03
DAV:   3    -0.163208513378E+03   -0.23253E-05   -0.32416E-05  6184   0.564E-02    0.328E-03
DAV:   4    -0.163208514158E+03   -0.77928E-06   -0.79237E-06  5360   0.311E-02    0.211E-03
DAV:   5    -0.163208514532E+03   -0.37458E-06   -0.37188E-06  4623   0.233E-02    0.149E-03
DAV:   6    -0.163208514771E+03   -0.23833E-06   -0.24306E-06  4200   0.161E-02
  39 F= -.16320851E+03 E0= -.16319952E+03  d E =-.677327E-03
       N       E                     dE             d eps       ncg     rms          rms(c)
DAV:   1    -0.163208124825E+03    0.38971E-03   -0.76989E-03  6314   0.177E-01    0.649E-03
DAV:   2    -0.163208137115E+03   -0.12290E-04   -0.13345E-04  6781   0.408E-02    0.321E-03
DAV:   3    -0.163208137955E+03   -0.84014E-06   -0.11959E-05  5544   0.339E-02    0.189E-03
DAV:   4    -0.163208138054E+03   -0.99477E-07   -0.25147E-06  4288   0.202E-02    0.122E-03
DAV:   5    -0.163208138167E+03   -0.11230E-06   -0.12114E-06  3584   0.132E-02    0.971E-04
DAV:   6    -0.163208138213E+03   -0.46741E-07   -0.78167E-07  3190   0.833E-03
  40 F= -.16320814E+03 E0= -.16319914E+03  d E =0.376557E-03
       N       E                     dE             d eps       ncg     rms          rms(c)
DAV:   1    -0.163210889936E+03   -0.27518E-02   -0.23924E+00  6312   0.304E+00    0.105E-01
DAV:   2    -0.163214771981E+03   -0.38820E-02   -0.42149E-02  6974   0.664E-01    0.522E-02
DAV:   3    -0.163214966031E+03   -0.19405E-03   -0.27661E-03  6480   0.431E-01    0.304E-02
DAV:   4    -0.163215003803E+03   -0.37771E-04   -0.56513E-04  6264   0.272E-01    0.176E-02
DAV:   5    -0.163215030886E+03   -0.27084E-04   -0.25854E-04  6942   0.174E-01    0.106E-02
DAV:   6    -0.163215038648E+03   -0.77610E-05   -0.15559E-04  6536   0.136E-01    0.656E-03
DAV:   7    -0.163215050247E+03   -0.11599E-04   -0.11441E-04  7455   0.540E-02    0.498E-03
DAV:   8    -0.163215051657E+03   -0.14109E-05   -0.11994E-05  5416   0.211E-02    0.344E-03
DAV:   9    -0.163215052648E+03   -0.99080E-06   -0.23279E-06  4228   0.209E-02
  41 F= -.16321505E+03 E0= -.16320607E+03  d E =-.691443E-02
       N       E                     dE             d eps       ncg     rms          rms(c)
DAV:   1    -0.163189904821E+03    0.25147E-01   -0.76335E+00  6312   0.541E+00    0.190E-01
DAV:   2    -0.163202363644E+03   -0.12459E-01   -0.13555E-01  7030   0.117E+00    0.947E-02
DAV:   3    -0.163202969365E+03   -0.60572E-03   -0.90241E-03  6384   0.775E-01    0.538E-02
DAV:   4    -0.163203075516E+03   -0.10615E-03   -0.17441E-03  6216   0.467E-01    0.309E-02
DAV:   5    -0.163203181196E+03   -0.10568E-03   -0.10171E-03  7384   0.256E-01    0.190E-02
DAV:   6    -0.163203197878E+03   -0.16682E-04   -0.34712E-04  6296   0.230E-01    0.116E-02
DAV:   7    -0.163203219977E+03   -0.22099E-04   -0.23508E-04  7063   0.101E-01    0.789E-03
DAV:   8    -0.163203228030E+03   -0.80534E-05   -0.69579E-05  6759   0.483E-02    0.464E-03
DAV:   9    -0.163203230653E+03   -0.26226E-05   -0.91690E-06  5158   0.293E-02    0.168E-03
DAV:  10    -0.163203231802E+03   -0.11490E-05   -0.27461E-06  4280   0.155E-02    0.115E-03
DAV:  11    -0.163203232948E+03   -0.11464E-05   -0.10460E-06  3693   0.102E-02    0.882E-04
DAV:  12    -0.163203234011E+03   -0.10632E-05   -0.59405E-07  3630   0.525E-03    0.797E-04
DAV:  13    -0.163203234935E+03   -0.92377E-06   -0.34478E-07  3607   0.446E-03
  42 F= -.16320323E+03 E0= -.16319420E+03  d E =0.118177E-01
       N       E                     dE             d eps       ncg     rms          rms(c)
DAV:   1    -0.163200046393E+03    0.31876E-02   -0.45605E-01  6352   0.125E+00    0.461E-02
DAV:   2    -0.163200754872E+03   -0.70848E-03   -0.78151E-03  7112   0.285E-01    0.221E-02
DAV:   3    -0.163200784796E+03   -0.29925E-04   -0.46687E-04  6344   0.168E-01    0.126E-02
DAV:   4    -0.163200791833E+03   -0.70364E-05   -0.10347E-04  6271   0.106E-01    0.726E-03
DAV:   5    -0.163200795969E+03   -0.41366E-05   -0.42141E-05  6912   0.747E-02    0.448E-03
DAV:   6    -0.163200797180E+03   -0.12101E-05   -0.21764E-05  5832   0.495E-02    0.285E-03
DAV:   7    -0.163200798783E+03   -0.16038E-05   -0.14132E-05  5680   0.253E-02    0.189E-03
DAV:   8    -0.163200799468E+03   -0.68439E-06   -0.46779E-06  4320   0.151E-02
  43 F= -.16320080E+03 E0= -.16319174E+03  d E =0.243547E-02
       N       E                     dE             d eps       ncg     rms          rms(c)
DAV:   1    -0.163200256534E+03    0.54225E-03   -0.41179E-02  6311   0.314E-01    0.143E-02
DAV:   2    -0.163200318964E+03   -0.62430E-04   -0.71010E-04  6640   0.889E-02    0.641E-03
DAV:   3    -0.163200321299E+03   -0.23342E-05   -0.34135E-05  6312   0.590E-02    0.409E-03
DAV:   4    -0.163200321273E+03    0.25102E-07   -0.10033E-05  5880   0.499E-02    0.255E-03
DAV:   5    -0.163200321645E+03   -0.37195E-06   -0.58503E-06  5272   0.226E-02    0.171E-03
DAV:   6    -0.163200322185E+03   -0.53975E-06   -0.35369E-06  4408   0.115E-02
  44 F= -.16320032E+03 E0= -.16319124E+03  d E =0.477283E-03
       N       E                     dE             d eps       ncg     rms          rms(c)
DAV:   1    -0.163176103126E+03    0.24219E-01   -0.11274E+01  6277   0.516E+00    0.239E-01
DAV:   2    -0.163195354101E+03   -0.19251E-01   -0.21422E-01  6672   0.142E+00    0.105E-01
DAV:   3    -0.163195956026E+03   -0.60192E-03   -0.82007E-03  6384   0.894E-01    0.696E-02
DAV:   4    -0.163195911612E+03    0.44415E-04   -0.27262E-03  6216   0.827E-01    0.422E-02
DAV:   5    -0.163195970113E+03   -0.58501E-04   -0.14211E-03  6407   0.377E-01    0.253E-02
DAV:   6    -0.163196079862E+03   -0.10975E-03   -0.10555E-03  6616   0.192E-01    0.154E-02
DAV:   7    -0.163196106181E+03   -0.26320E-04   -0.26672E-04  6512   0.124E-01    0.889E-03
DAV:   8    -0.163196116831E+03   -0.10649E-04   -0.70671E-05  5920   0.727E-02    0.516E-03
DAV:   9    -0.163196126226E+03   -0.93954E-05   -0.44327E-05  6311   0.463E-02    0.261E-03
DAV:  10    -0.163196130984E+03   -0.47577E-05   -0.13904E-05  6000   0.207E-02    0.184E-03
DAV:  11    -0.163196135409E+03   -0.44256E-05   -0.22559E-06  4149   0.119E-02    0.103E-03
DAV:  12    -0.163196137603E+03   -0.21940E-05   -0.10927E-06  3839   0.880E-03    0.875E-04
DAV:  13    -0.163196138731E+03   -0.11276E-05   -0.33357E-07  3528   0.534E-03    0.781E-04
DAV:  14    -0.163196140679E+03   -0.19483E-05   -0.32779E-07  3614   0.298E-03    0.754E-04
DAV:  15    -0.163196141239E+03   -0.56000E-06   -0.18109E-07  3600   0.283E-03
  45 F= -.16319614E+03 E0= -.16318665E+03  d E =0.418095E-02
       N       E                     dE             d eps       ncg     rms          rms(c)
DAV:   1    -0.163196521437E+03   -0.38076E-03   -0.33340E-02  6430   0.385E-01    0.125E-02
DAV:   2    -0.163196577834E+03   -0.56397E-04   -0.59318E-04  7696   0.734E-02    0.645E-03
DAV:   3    -0.163196580412E+03   -0.25780E-05   -0.29642E-05  6655   0.417E-02    0.406E-03
DAV:   4    -0.163196580856E+03   -0.44481E-06   -0.38863E-06  4880   0.317E-02    0.229E-03
DAV:   5    -0.163196581347E+03   -0.49108E-06   -0.13767E-06  3856   0.222E-02    0.149E-03
DAV:   6    -0.163196581301E+03    0.46159E-07   -0.10843E-06  3624   0.149E-02
  46 F= -.16319658E+03 E0= -.16318712E+03  d E =-.440062E-03
       N       E                     dE             d eps       ncg     rms          rms(c)
DAV:   1    -0.163189722013E+03    0.68593E-02   -0.72270E+00  6342   0.569E+00    0.185E-01
DAV:   2    -0.163202526796E+03   -0.12805E-01   -0.13582E-01  7656   0.114E+00    0.961E-02
DAV:   3    -0.163203041443E+03   -0.51465E-03   -0.72510E-03  6336   0.676E-01    0.592E-02
DAV:   4    -0.163203122797E+03   -0.81353E-04   -0.12024E-03  6366   0.494E-01    0.336E-02
DAV:   5    -0.163203191819E+03   -0.69022E-04   -0.70966E-04  8040   0.342E-01    0.227E-02
DAV:   6    -0.163203183345E+03    0.84739E-05   -0.30713E-04  7008   0.220E-01    0.105E-02
DAV:   7    -0.163203207312E+03   -0.23967E-04   -0.24884E-04  6728   0.879E-02    0.738E-03
DAV:   8    -0.163203211714E+03   -0.44025E-05   -0.42638E-05  6432   0.401E-02    0.539E-03
DAV:   9    -0.163203213681E+03   -0.19671E-05   -0.66617E-06  5184   0.287E-02    0.222E-03
DAV:  10    -0.163203215285E+03   -0.16039E-05   -0.32194E-06  4480   0.158E-02    0.122E-03
DAV:  11    -0.163203216242E+03   -0.95711E-06   -0.14851E-06  3976   0.932E-03
  47 F= -.16320322E+03 E0= -.16319420E+03  d E =-.663494E-02
       N       E                     dE             d eps       ncg     rms          rms(c)
DAV:   1    -0.163202886310E+03    0.32897E-03   -0.19839E-02  6464   0.278E-01    0.997E-03
DAV:   2    -0.163202919636E+03   -0.33326E-04   -0.35288E-04  7448   0.543E-02    0.503E-03
DAV:   3    -0.163202921549E+03   -0.19125E-05   -0.20340E-05  6400   0.301E-02    0.319E-03
DAV:   4    -0.163202922163E+03   -0.61441E-06   -0.32709E-06  4760   0.267E-02    0.183E-03
DAV:   5    -0.163202922677E+03   -0.51362E-06   -0.92415E-07  3824   0.154E-02    0.118E-03
DAV:   6    -0.163202922865E+03   -0.18781E-06   -0.83634E-07  3560   0.116E-02
  48 F= -.16320292E+03 E0= -.16319389E+03  d E =0.293378E-03
       N       E                     dE             d eps       ncg     rms          rms(c)
DAV:   1    -0.163203643999E+03   -0.72132E-03   -0.22764E-01  6415   0.956E-01    0.330E-02
DAV:   2    -0.163204020500E+03   -0.37650E-03   -0.40424E-03  7600   0.191E-01    0.166E-02
DAV:   3    -0.163204035601E+03   -0.15101E-04   -0.20427E-04  6216   0.112E-01    0.101E-02
DAV:   4    -0.163204039019E+03   -0.34179E-05   -0.43199E-05  6235   0.973E-02    0.604E-03
DAV:   5    -0.163204040596E+03   -0.15770E-05   -0.23840E-05  7384   0.644E-02    0.412E-03
DAV:   6    -0.163204041033E+03   -0.43777E-06   -0.11268E-05  6134   0.336E-02    0.233E-03
DAV:   7    -0.163204041789E+03   -0.75591E-06   -0.72957E-06  5248   0.146E-02
  49 F= -.16320404E+03 E0= -.16319508E+03  d E =-.111892E-02
       N       E                     dE             d eps       ncg     rms          rms(c)
DAV:   1    -0.163204366602E+03   -0.32557E-03   -0.16960E-02  6285   0.282E-01    0.917E-03
DAV:   2    -0.163204395947E+03   -0.29345E-04   -0.30582E-04  7360   0.566E-02    0.508E-03
DAV:   3    -0.163204397446E+03   -0.14987E-05   -0.16647E-05  5912   0.408E-02    0.314E-03
DAV:   4    -0.163204397859E+03   -0.41319E-06   -0.30513E-06  4608   0.288E-02    0.199E-03
DAV:   5    -0.163204398125E+03   -0.26598E-06   -0.17646E-06  4135   0.196E-02    0.128E-03
DAV:   6    -0.163204398265E+03   -0.14011E-06   -0.12532E-06  3600   0.115E-02
  50 F= -.16320440E+03 E0= -.16319545E+03  d E =-.356476E-03
       N       E                     dE             d eps       ncg     rms          rms(c)
DAV:   1    -0.163205377653E+03   -0.97953E-03   -0.47662E-01  6255   0.149E+00    0.481E-02
DAV:   2    -0.163206185664E+03   -0.80801E-03   -0.84954E-03  7336   0.292E-01    0.250E-02
DAV:   3    -0.163206217679E+03   -0.32015E-04   -0.42997E-04  6304   0.186E-01    0.153E-02
DAV:   4    -0.163206223402E+03   -0.57235E-05   -0.83475E-05  6271   0.143E-01    0.881E-03
DAV:   5    -0.163206229229E+03   -0.58271E-05   -0.58350E-05  8128   0.866E-02    0.561E-03
DAV:   6    -0.163206229305E+03   -0.75976E-07   -0.21382E-05  6567   0.520E-02    0.311E-03
DAV:   7    -0.163206230707E+03   -0.14018E-05   -0.14563E-05  6191   0.236E-02    0.243E-03
DAV:   8    -0.163206230900E+03   -0.19286E-06   -0.24980E-06  3975   0.141E-02
  51 F= -.16320623E+03 E0= -.16319737E+03  d E =-.183264E-02
       N       E                     dE             d eps       ncg     rms          rms(c)
DAV:   1    -0.163205313204E+03    0.91750E-03   -0.85122E-02  6264   0.627E-01    0.209E-02
DAV:   2    -0.163205455755E+03   -0.14255E-03   -0.15091E-03  7495   0.123E-01    0.106E-02
DAV:   3    -0.163205460854E+03   -0.50992E-05   -0.79049E-05  6312   0.766E-02    0.655E-03
DAV:   4    -0.163205461487E+03   -0.63336E-06   -0.14585E-05  6023   0.626E-02    0.373E-03
DAV:   5    -0.163205462104E+03   -0.61703E-06   -0.87049E-06  6560   0.373E-02    0.232E-03
DAV:   6    -0.163205462092E+03    0.12180E-07   -0.41685E-06  4694   0.223E-02
  52 F= -.16320546E+03 E0= -.16319657E+03  d E =0.768808E-03
       N       E                     dE             d eps       ncg     rms          rms(c)
DAV:   1    -0.163206407442E+03   -0.94534E-03   -0.77224E-01  6271   0.188E+00    0.617E-02
DAV:   2    -0.163207712575E+03   -0.13051E-02   -0.13758E-02  7455   0.369E-01    0.312E-02
DAV:   3    -0.163207763050E+03   -0.50476E-04   -0.68721E-04  6240   0.231E-01    0.191E-02
DAV:   4    -0.163207772051E+03   -0.90002E-05   -0.13632E-04  6244   0.180E-01    0.110E-02
DAV:   5    -0.163207780194E+03   -0.81437E-05   -0.90510E-05  8200   0.110E-01    0.694E-03
DAV:   6    -0.163207780581E+03   -0.38628E-06   -0.35798E-05  6936   0.642E-02    0.385E-03
DAV:   7    -0.163207782709E+03   -0.21287E-05   -0.22928E-05  6319   0.290E-02    0.301E-03
DAV:   8    -0.163207782914E+03   -0.20438E-06   -0.35428E-06  4302   0.169E-02
  53 F= -.16320778E+03 E0= -.16319900E+03  d E =-.232082E-02
       N       E                     dE             d eps       ncg     rms          rms(c)
DAV:   1    -0.163207210265E+03    0.57244E-03   -0.38872E-02  6215   0.428E-01    0.147E-02
DAV:   2    -0.163207276394E+03   -0.66130E-04   -0.70016E-04  7591   0.848E-02    0.748E-03
DAV:   3    -0.163207278706E+03   -0.23117E-05   -0.37479E-05  6304   0.525E-02    0.468E-03
DAV:   4    -0.163207278946E+03   -0.23973E-06   -0.69891E-06  5495   0.454E-02    0.268E-03
DAV:   5    -0.163207279042E+03   -0.96392E-07   -0.28111E-06  4431   0.263E-02    0.160E-03
DAV:   6    -0.163207279114E+03   -0.71726E-07   -0.26640E-06  4279   0.166E-02
  54 F= -.16320728E+03 E0= -.16319847E+03  d E =0.503800E-03
       N       E                     dE             d eps       ncg     rms          rms(c)
DAV:   1    -0.163208156179E+03   -0.87714E-03   -0.24891E-01  6255   0.106E+00    0.353E-02
DAV:   2    -0.163208574717E+03   -0.41854E-03   -0.44068E-03  7366   0.209E-01    0.179E-02
DAV:   3    -0.163208591903E+03   -0.17186E-04   -0.22805E-04  6304   0.134E-01    0.110E-02
DAV:   4    -0.163208594970E+03   -0.30677E-05   -0.44856E-05  6280   0.106E-01    0.631E-03
DAV:   5    -0.163208597838E+03   -0.28677E-05   -0.29369E-05  7851   0.641E-02    0.398E-03
DAV:   6    -0.163208598089E+03   -0.25149E-06   -0.12464E-05  6232   0.367E-02    0.223E-03
DAV:   7    -0.163208598870E+03   -0.78035E-06   -0.83404E-06  5471   0.172E-02
  55 F= -.16320860E+03 E0= -.16319985E+03  d E =-.131976E-02
       N       E                     dE             d eps       ncg     rms          rms(c)
DAV:   1    -0.163208550793E+03    0.47297E-04   -0.19154E-03  6246   0.106E-01    0.546E-03
DAV:   2    -0.163208554586E+03   -0.37936E-05   -0.43797E-05  6327   0.287E-02    0.328E-03
DAV:   3    -0.163208554897E+03   -0.31028E-06   -0.59827E-06  4719   0.253E-02    0.197E-03
DAV:   4    -0.163208554880E+03    0.16444E-07   -0.12195E-06  3291   0.182E-02    0.109E-03
DAV:   5    -0.163208554932E+03   -0.52198E-07   -0.84998E-07  3293   0.681E-03    0.790E-04
DAV:   6    -0.163208554994E+03   -0.61409E-07   -0.56679E-07  3082   0.650E-03
  56 F= -.16320855E+03 E0= -.16319980E+03  d E =0.438761E-04
       N       E                     dE             d eps       ncg     rms          rms(c)
DAV:   1    -0.163208893999E+03   -0.33907E-03   -0.22116E-02  6210   0.324E-01    0.111E-02
DAV:   2    -0.163208932264E+03   -0.38266E-04   -0.39658E-04  7384   0.644E-02    0.583E-03
DAV:   3    -0.163208934144E+03   -0.18793E-05   -0.21169E-05  6360   0.406E-02    0.359E-03
DAV:   4    -0.163208934499E+03   -0.35546E-06   -0.33671E-06  4832   0.330E-02    0.209E-03
DAV:   5    -0.163208934744E+03   -0.24514E-06   -0.14514E-06  3872   0.206E-02    0.129E-03
DAV:   6    -0.163208934792E+03   -0.47483E-07   -0.13091E-06  3536   0.124E-02
  57 F= -.16320893E+03 E0= -.16320020E+03  d E =-.379798E-03
       N       E                     dE             d eps       ncg     rms          rms(c)
DAV:   1    -0.163209455750E+03   -0.52101E-03   -0.47672E-02  6287   0.452E-01    0.147E-02
DAV:   2    -0.163209536408E+03   -0.80658E-04   -0.85083E-04  7536   0.872E-02    0.773E-03
DAV:   3    -0.163209539698E+03   -0.32892E-05   -0.40885E-05  6592   0.496E-02    0.488E-03
DAV:   4    -0.163209540286E+03   -0.58862E-06   -0.61108E-06  5456   0.360E-02    0.282E-03
DAV:   5    -0.163209540680E+03   -0.39375E-06   -0.22489E-06  4136   0.275E-02    0.166E-03
DAV:   6    -0.163209540652E+03    0.27751E-07   -0.16903E-06  3656   0.168E-02
  58 F= -.16320954E+03 E0= -.16320083E+03  d E =-.605861E-03
       N       E                     dE             d eps       ncg     rms          rms(c)
DAV:   1    -0.163204790125E+03    0.47506E-02   -0.11006E+00  6263   0.216E+00    0.725E-02
DAV:   2    -0.163206620184E+03   -0.18301E-02   -0.19503E-02  7736   0.419E-01    0.371E-02
DAV:   3    -0.163206675084E+03   -0.54900E-04   -0.88014E-04  6344   0.236E-01    0.225E-02
DAV:   4    -0.163206685809E+03   -0.10725E-04   -0.15869E-04  6264   0.185E-01    0.130E-02
DAV:   5    -0.163206690936E+03   -0.51265E-05   -0.84977E-05  7720   0.140E-01    0.792E-03
DAV:   6    -0.163206690659E+03    0.27701E-06   -0.46681E-05  6895   0.728E-02    0.375E-03
DAV:   7    -0.163206693667E+03   -0.30081E-05   -0.30451E-05  6735   0.314E-02    0.295E-03
DAV:   8    -0.163206694104E+03   -0.43695E-06   -0.46770E-06  4870   0.174E-02
  59 F= -.16320669E+03 E0= -.16319785E+03  d E =0.284655E-02
       N       E                     dE             d eps       ncg     rms          rms(c)
DAV:   1    -0.163207527873E+03   -0.83421E-03   -0.18998E-01  6296   0.901E-01    0.302E-02
DAV:   2    -0.163207847614E+03   -0.31974E-03   -0.33803E-03  7643   0.172E-01    0.151E-02
DAV:   3    -0.163207859685E+03   -0.12071E-04   -0.15772E-04  6216   0.102E-01    0.920E-03
DAV:   4    -0.163207861949E+03   -0.22639E-05   -0.33755E-05  6236   0.818E-02    0.518E-03
DAV:   5    -0.163207864217E+03   -0.22677E-05   -0.21797E-05  7832   0.510E-02    0.352E-03
DAV:   6    -0.163207864254E+03   -0.37762E-07   -0.70640E-06  5159   0.297E-02
  60 F= -.16320786E+03 E0= -.16319908E+03  d E =-.117015E-02
       N       E                     dE             d eps       ncg     rms          rms(c)
DAV:   1    -0.163208900489E+03   -0.10363E-02   -0.94866E-01  6271   0.199E+00    0.666E-02
DAV:   2    -0.163210499216E+03   -0.15987E-02   -0.17021E-02  7479   0.394E-01    0.341E-02
DAV:   3    -0.163210562817E+03   -0.63601E-04   -0.86712E-04  6472   0.228E-01    0.213E-02
DAV:   4    -0.163210574221E+03   -0.11404E-04   -0.13646E-04  6280   0.175E-01    0.127E-02
DAV:   5    -0.163210578445E+03   -0.42231E-05   -0.75657E-05  7672   0.131E-01    0.749E-03
DAV:   6    -0.163210579529E+03   -0.10845E-05   -0.46382E-05  6943   0.678E-02    0.344E-03
DAV:   7    -0.163210582545E+03   -0.30157E-05   -0.29669E-05  6687   0.258E-02    0.263E-03
DAV:   8    -0.163210582841E+03   -0.29632E-06   -0.29193E-06  4278   0.146E-02
  61 F= -.16321058E+03 E0= -.16320192E+03  d E =-.271859E-02
       N       E                     dE             d eps       ncg     rms          rms(c)
DAV:   1    -0.163200469987E+03    0.10113E-01   -0.30705E+00  6271   0.355E+00    0.121E-01
DAV:   2    -0.163205590326E+03   -0.51203E-02   -0.54709E-02  7664   0.702E-01    0.617E-02
DAV:   3    -0.163205757108E+03   -0.16678E-03   -0.25937E-03  6320   0.398E-01    0.375E-02
DAV:   4    -0.163205791619E+03   -0.34511E-04   -0.46421E-04  6343   0.299E-01    0.223E-02
DAV:   5    -0.163205803743E+03   -0.12124E-04   -0.21729E-04  7447   0.242E-01    0.135E-02
DAV:   6    -0.163205803631E+03    0.11193E-06   -0.14071E-04  6864   0.122E-01    0.594E-03
DAV:   7    -0.163205813532E+03   -0.99011E-05   -0.10132E-04  6944   0.535E-02    0.478E-03
DAV:   8    -0.163205814991E+03   -0.14594E-05   -0.14018E-05  5160   0.292E-02    0.311E-03
DAV:   9    -0.163205815815E+03   -0.82399E-06   -0.35594E-06  4375   0.194E-02
  62 F= -.16320582E+03 E0= -.16319693E+03  d E =0.476703E-02
       N       E                     dE             d eps       ncg     rms          rms(c)
DAV:   1    -0.163206529627E+03   -0.71464E-03   -0.13391E-01  6272   0.754E-01    0.257E-02
DAV:   2    -0.163206755753E+03   -0.22613E-03   -0.23901E-03  7590   0.148E-01    0.128E-02
DAV:   3    -0.163206765887E+03   -0.10133E-04   -0.12374E-04  6368   0.832E-02    0.793E-03
DAV:   4    -0.163206767650E+03   -0.17628E-05   -0.20506E-05  6240   0.646E-02    0.449E-03
DAV:   5    -0.163206768957E+03   -0.13077E-05   -0.91158E-06  6143   0.441E-02    0.274E-03
DAV:   6    -0.163206768958E+03   -0.84401E-09   -0.53871E-06  5063   0.285E-02
  63 F= -.16320677E+03 E0= -.16319793E+03  d E =-.953143E-03
       N       E                     dE             d eps       ncg     rms          rms(c)
DAV:   1    -0.163207300103E+03   -0.53115E-03   -0.16890E+00  6270   0.265E+00    0.894E-02
DAV:   2    -0.163210168992E+03   -0.28689E-02   -0.30555E-02  7551   0.530E-01    0.453E-02
DAV:   3    -0.163210279855E+03   -0.11086E-03   -0.15283E-03  6376   0.306E-01    0.280E-02
DAV:   4    -0.163210301558E+03   -0.21703E-04   -0.26764E-04  6296   0.241E-01    0.166E-02
DAV:   5    -0.163210309147E+03   -0.75885E-05   -0.13943E-04  7520   0.170E-01    0.987E-03
DAV:   6    -0.163210311886E+03   -0.27398E-05   -0.87998E-05  7287   0.930E-02    0.481E-03
DAV:   7    -0.163210317087E+03   -0.52005E-05   -0.53449E-05  6671   0.375E-02    0.375E-03
DAV:   8    -0.163210317615E+03   -0.52803E-06   -0.61813E-06  4855   0.224E-02
  64 F= -.16321032E+03 E0= -.16320164E+03  d E =-.354866E-02
       N       E                     dE             d eps       ncg     rms          rms(c)
DAV:   1    -0.163199074724E+03    0.11242E-01   -0.35509E+00  6271   0.381E+00    0.131E-01
DAV:   2    -0.163205003920E+03   -0.59292E-02   -0.63363E-02  7624   0.754E-01    0.665E-02
DAV:   3    -0.163205203973E+03   -0.20005E-03   -0.30765E-03  6304   0.432E-01    0.404E-02
DAV:   4    -0.163205245126E+03   -0.41152E-04   -0.54449E-04  6334   0.323E-01    0.242E-02
DAV:   5    -0.163205259081E+03   -0.13956E-04   -0.25499E-04  7464   0.264E-01    0.147E-02
DAV:   6    -0.163205259029E+03    0.52649E-07   -0.16474E-04  6759   0.132E-01    0.639E-03
DAV:   7    -0.163205271386E+03   -0.12357E-04   -0.12677E-04  7040   0.580E-02    0.523E-03
DAV:   8    -0.163205272950E+03   -0.15645E-05   -0.15662E-05  5288   0.314E-02    0.346E-03
DAV:   9    -0.163205273803E+03   -0.85280E-06   -0.35402E-06  4527   0.217E-02
  65 F= -.16320527E+03 E0= -.16319636E+03  d E =0.504381E-02
       N       E                     dE             d eps       ncg     rms          rms(c)
DAV:   1    -0.163206144063E+03   -0.87111E-03   -0.29740E-01  6272   0.112E+00    0.381E-02
DAV:   2    -0.163206643906E+03   -0.49984E-03   -0.53034E-03  7646   0.222E-01    0.190E-02
DAV:   3    -0.163206664959E+03   -0.21053E-04   -0.26769E-04  6344   0.124E-01    0.117E-02
DAV:   4    -0.163206668869E+03   -0.39101E-05   -0.45028E-05  6304   0.976E-02    0.684E-03
DAV:   5    -0.163206670815E+03   -0.19457E-05   -0.22226E-05  7575   0.706E-02    0.414E-03
DAV:   6    -0.163206670948E+03   -0.13386E-06   -0.12723E-05  6287   0.394E-02    0.199E-03
DAV:   7    -0.163206671764E+03   -0.81594E-06   -0.86285E-06  5910   0.149E-02
  66 F= -.16320667E+03 E0= -.16319783E+03  d E =-.139796E-02
       N       E                     dE             d eps       ncg     rms          rms(c)
DAV:   1    -0.163207656913E+03   -0.98596E-03   -0.80351E-01  6263   0.182E+00    0.616E-02
DAV:   2    -0.163209007213E+03   -0.13503E-02   -0.14392E-02  7624   0.363E-01    0.312E-02
DAV:   3    -0.163209057763E+03   -0.50550E-04   -0.69626E-04  6392   0.209E-01    0.193E-02
DAV:   4    -0.163209068480E+03   -0.10717E-04   -0.12598E-04  6270   0.170E-01    0.117E-02
DAV:   5    -0.163209071290E+03   -0.28097E-05   -0.68458E-05  7544   0.120E-01    0.686E-03
DAV:   6    -0.163209072756E+03   -0.14662E-05   -0.39394E-05  6863   0.612E-02    0.334E-03
DAV:   7    -0.163209075240E+03   -0.24836E-05   -0.24668E-05  6423   0.251E-02    0.268E-03
DAV:   8    -0.163209075480E+03   -0.23977E-06   -0.27828E-06  4078   0.161E-02
  67 F= -.16320908E+03 E0= -.16320035E+03  d E =-.240372E-02
       N       E                     dE             d eps       ncg     rms          rms(c)
DAV:   1    -0.163200630221E+03    0.84450E-02   -0.24919E+00  6263   0.318E+00    0.110E-01
DAV:   2    -0.163204765890E+03   -0.41357E-02   -0.44261E-02  7680   0.634E-01    0.554E-02
DAV:   3    -0.163204904456E+03   -0.13857E-03   -0.21274E-03  6320   0.358E-01    0.337E-02
DAV:   4    -0.163204933738E+03   -0.29282E-04   -0.36841E-04  6351   0.278E-01    0.205E-02
DAV:   5    -0.163204939667E+03   -0.59288E-05   -0.18068E-04  7334   0.224E-01    0.122E-02
DAV:   6    -0.163204941610E+03   -0.19429E-05   -0.12303E-04  6776   0.108E-01    0.541E-03
DAV:   7    -0.163204949876E+03   -0.82666E-05   -0.83982E-05  6928   0.456E-02    0.449E-03
DAV:   8    -0.163204950942E+03   -0.10659E-05   -0.10013E-05  5040   0.262E-02    0.288E-03
DAV:   9    -0.163204951567E+03   -0.62518E-06   -0.23211E-06  4023   0.188E-02
  68 F= -.16320495E+03 E0= -.16319602E+03  d E =0.412391E-02
       N       E                     dE             d eps       ncg     rms          rms(c)
DAV:   1    -0.163205742153E+03   -0.79121E-03   -0.21820E-01  6272   0.958E-01    0.326E-02
DAV:   2    -0.163206108323E+03   -0.36617E-03   -0.38826E-03  7678   0.190E-01    0.162E-02
DAV:   3    -0.163206123949E+03   -0.15625E-04   -0.19524E-04  6352   0.106E-01    0.101E-02
DAV:   4    -0.163206126869E+03   -0.29205E-05   -0.32419E-05  6295   0.845E-02    0.592E-03
DAV:   5    -0.163206128159E+03   -0.12899E-05   -0.15473E-05  7151   0.608E-02    0.353E-03
DAV:   6    -0.163206128294E+03   -0.13461E-06   -0.93579E-06  5863   0.337E-02
  69 F= -.16320613E+03 E0= -.16319726E+03  d E =-.117673E-02
       N       E                     dE             d eps       ncg     rms          rms(c)
DAV:   1    -0.163205611898E+03    0.51626E-03   -0.27892E+00  6262   0.341E+00    0.115E-01
DAV:   2    -0.163210391014E+03   -0.47791E-02   -0.50931E-02  7616   0.690E-01    0.583E-02
DAV:   3    -0.163210579937E+03   -0.18892E-03   -0.25938E-03  6400   0.402E-01    0.361E-02
DAV:   4    -0.163210616883E+03   -0.36946E-04   -0.42849E-04  6280   0.316E-01    0.220E-02
DAV:   5    -0.163210624339E+03   -0.74563E-05   -0.23619E-04  7504   0.224E-01    0.127E-02
DAV:   6    -0.163210631201E+03   -0.68611E-05   -0.15306E-04  6912   0.114E-01    0.610E-03
DAV:   7    -0.163210639668E+03   -0.84673E-05   -0.84447E-05  6639   0.445E-02    0.484E-03
DAV:   8    -0.163210640522E+03   -0.85363E-06   -0.88890E-06  5023   0.295E-02
  70 F= -.16321064E+03 E0= -.16320199E+03  d E =-.451223E-02
       N       E                     dE             d eps       ncg     rms          rms(c)
DAV:   1    -0.163193862960E+03    0.16777E-01   -0.59014E+00  6255   0.490E+00    0.169E-01
DAV:   2    -0.163203826900E+03   -0.99639E-02   -0.10645E-01  7680   0.980E-01    0.859E-02
DAV:   3    -0.163204155120E+03   -0.32822E-03   -0.50402E-03  6352   0.552E-01    0.524E-02
DAV:   4    -0.163204229651E+03   -0.74531E-04   -0.90722E-04  6430   0.429E-01    0.328E-02
DAV:   5    -0.163204239789E+03   -0.10138E-04   -0.41218E-04  7416   0.352E-01    0.195E-02
DAV:   6    -0.163204244942E+03   -0.51535E-05   -0.29231E-04  6647   0.158E-01    0.831E-03
DAV:   7    -0.163204261993E+03   -0.17050E-04   -0.17424E-04  6784   0.648E-02    0.623E-03
DAV:   8    -0.163204264078E+03   -0.20859E-05   -0.20531E-05  5672   0.406E-02    0.379E-03
DAV:   9    -0.163204265371E+03   -0.12929E-05   -0.60039E-06  5015   0.248E-02    0.184E-03
DAV:  10    -0.163204266293E+03   -0.92137E-06   -0.49117E-06  4711   0.144E-02
  71 F= -.16320427E+03 E0= -.16319529E+03  d E =0.637423E-02
       N       E                     dE             d eps       ncg     rms          rms(c)
DAV:   1    -0.163205063304E+03   -0.79793E-03   -0.26866E-01  6272   0.107E+00    0.362E-02
DAV:   2    -0.163205514723E+03   -0.45142E-03   -0.47824E-03  7670   0.210E-01    0.180E-02
DAV:   3    -0.163205533268E+03   -0.18546E-04   -0.23609E-04  6240   0.122E-01    0.111E-02
DAV:   4    -0.163205537092E+03   -0.38235E-05   -0.45317E-05  6296   0.102E-01    0.651E-03
DAV:   5    -0.163205539566E+03   -0.24743E-05   -0.25848E-05  7903   0.671E-02    0.413E-03
DAV:   6    -0.163205539698E+03   -0.13245E-06   -0.11136E-05  6135   0.369E-02    0.219E-03
DAV:   7    -0.163205540464E+03   -0.76542E-06   -0.79527E-06  5606   0.162E-02
  72 F= -.16320554E+03 E0= -.16319664E+03  d E =-.127417E-02
       N       E                     dE             d eps       ncg     rms          rms(c)
DAV:   1    -0.163206406081E+03   -0.86638E-03   -0.84957E-01  6254   0.189E+00    0.635E-02
DAV:   2    -0.163207839370E+03   -0.14333E-02   -0.15241E-02  7647   0.375E-01    0.322E-02
DAV:   3    -0.163207891112E+03   -0.51742E-04   -0.71376E-04  6336   0.218E-01    0.199E-02
DAV:   4    -0.163207902996E+03   -0.11884E-04   -0.13558E-04  6270   0.180E-01    0.122E-02
DAV:   5    -0.163207905989E+03   -0.29925E-05   -0.80182E-05  7744   0.123E-01    0.720E-03
DAV:   6    -0.163207907430E+03   -0.14412E-05   -0.39239E-05  6839   0.609E-02    0.357E-03
DAV:   7    -0.163207909628E+03   -0.21985E-05   -0.22447E-05  6199   0.254E-02    0.276E-03
DAV:   8    -0.163207909862E+03   -0.23347E-06   -0.32187E-06  4222   0.185E-02
  73 F= -.16320791E+03 E0= -.16319914E+03  d E =-.236940E-02
       N       E                     dE             d eps       ncg     rms          rms(c)
DAV:   1    -0.163202080969E+03    0.58287E-02   -0.15465E+00  6255   0.252E+00    0.865E-02
DAV:   2    -0.163204646338E+03   -0.25654E-02   -0.27405E-02  7720   0.499E-01    0.436E-02
DAV:   3    -0.163204731747E+03   -0.85408E-04   -0.12991E-03  6351   0.279E-01    0.268E-02
DAV:   4    -0.163204749028E+03   -0.17281E-04   -0.21092E-04  6278   0.226E-01    0.164E-02
DAV:   5    -0.163204751067E+03   -0.20396E-05   -0.11415E-04  7446   0.179E-01    0.952E-03
DAV:   6    -0.163204752220E+03   -0.11528E-05   -0.70180E-05  6620   0.811E-02    0.425E-03
DAV:   7    -0.163204756772E+03   -0.45520E-05   -0.46585E-05  6679   0.350E-02    0.349E-03
DAV:   8    -0.163204757452E+03   -0.68011E-06   -0.64510E-06  4791   0.215E-02
  74 F= -.16320476E+03 E0= -.16319581E+03  d E =0.315241E-02
       N       E                     dE             d eps       ncg     rms          rms(c)
DAV:   1    -0.163205494022E+03   -0.73725E-03   -0.10134E+00  6255   0.205E+00    0.701E-02
DAV:   2    -0.163207199138E+03   -0.17051E-02   -0.18138E-02  7644   0.410E-01    0.348E-02
DAV:   3    -0.163207265203E+03   -0.66065E-04   -0.89248E-04  6192   0.244E-01    0.214E-02
DAV:   4    -0.163207279734E+03   -0.14532E-04   -0.18291E-04  6252   0.204E-01    0.130E-02
DAV:   5    -0.163207285910E+03   -0.61753E-05   -0.11355E-04  8110   0.131E-01    0.830E-03
DAV:   6    -0.163207287434E+03   -0.15248E-05   -0.45538E-05  6739   0.676E-02    0.430E-03
DAV:   7    -0.163207289906E+03   -0.24715E-05   -0.26732E-05  6223   0.294E-02    0.313E-03
DAV:   8    -0.163207290025E+03   -0.11946E-06   -0.39962E-06  4351   0.212E-02
  75 F= -.16320729E+03 E0= -.16319849E+03  d E =-.253257E-02
       N       E                     dE             d eps       ncg     rms          rms(c)
DAV:   1    -0.163207972457E+03   -0.68255E-03   -0.10984E-01  6272   0.672E-01    0.228E-02
DAV:   2    -0.163208154608E+03   -0.18215E-03   -0.19435E-03  7400   0.137E-01    0.118E-02
DAV:   3    -0.163208162541E+03   -0.79330E-05   -0.10384E-04  6383   0.893E-02    0.724E-03
DAV:   4    -0.163208164355E+03   -0.18144E-05   -0.19514E-05  6240   0.668E-02    0.457E-03
DAV:   5    -0.163208165010E+03   -0.65526E-06   -0.10930E-05  6215   0.472E-02    0.267E-03
DAV:   6    -0.163208165583E+03   -0.57284E-06   -0.77275E-06  5511   0.248E-02
  76 F= -.16320817E+03 E0= -.16319941E+03  d E =-.875558E-03
       N       E                     dE             d eps       ncg     rms          rms(c)
DAV:   1    -0.163204551832E+03    0.36132E-02   -0.77713E-01  6255   0.177E+00    0.617E-02
DAV:   2    -0.163205823548E+03   -0.12717E-02   -0.13640E-02  7480   0.357E-01    0.309E-02
DAV:   3    -0.163205871095E+03   -0.47547E-04   -0.71487E-04  6400   0.218E-01    0.189E-02
DAV:   4    -0.163205881100E+03   -0.10006E-04   -0.12987E-04  6310   0.172E-01    0.118E-02
DAV:   5    -0.163205882362E+03   -0.12617E-05   -0.67629E-05  7464   0.127E-01    0.685E-03
DAV:   6    -0.163205884633E+03   -0.22711E-05   -0.49850E-05  6646   0.600E-02    0.328E-03
DAV:   7    -0.163205887578E+03   -0.29453E-05   -0.29457E-05  6791   0.249E-02    0.287E-03
DAV:   8    -0.163205887870E+03   -0.29117E-06   -0.24668E-06  4110   0.152E-02
  77 F= -.16320589E+03 E0= -.16319701E+03  d E =0.227771E-02
       N       E                     dE             d eps       ncg     rms          rms(c)
DAV:   1    -0.163206724979E+03   -0.83740E-03   -0.98599E-01  6255   0.199E+00    0.691E-02
DAV:   2    -0.163208377125E+03   -0.16521E-02   -0.17628E-02  7599   0.405E-01    0.343E-02
DAV:   3    -0.163208444068E+03   -0.66943E-04   -0.89681E-04  6328   0.241E-01    0.212E-02
DAV:   4    -0.163208458042E+03   -0.13974E-04   -0.16855E-04  6244   0.201E-01    0.133E-02
DAV:   5    -0.163208460902E+03   -0.28595E-05   -0.95903E-05  7704   0.132E-01    0.774E-03
DAV:   6    -0.163208463889E+03   -0.29874E-05   -0.54701E-05  6647   0.645E-02    0.383E-03
DAV:   7    -0.163208466472E+03   -0.25826E-05   -0.26986E-05  6239   0.266E-02    0.298E-03
DAV:   8    -0.163208466624E+03   -0.15237E-06   -0.32009E-06  4287   0.195E-02
  78 F= -.16320847E+03 E0= -.16319972E+03  d E =-.257875E-02
       N       E                     dE             d eps       ncg     rms          rms(c)
DAV:   1    -0.163206183053E+03    0.22834E-02   -0.38207E-01  6255   0.123E+00    0.431E-02
DAV:   2    -0.163206808738E+03   -0.62568E-03   -0.67150E-03  7599   0.247E-01    0.215E-02
DAV:   3    -0.163206830356E+03   -0.21619E-04   -0.33157E-04  6288   0.147E-01    0.132E-02
DAV:   4    -0.163206835457E+03   -0.51002E-05   -0.68040E-05  6255   0.125E-01    0.820E-03
DAV:   5    -0.163206836070E+03   -0.61303E-06   -0.35893E-05  7591   0.860E-02    0.488E-03
DAV:   6    -0.163206837140E+03   -0.10703E-05   -0.22489E-05  6398   0.411E-02    0.249E-03
DAV:   7    -0.163206838332E+03   -0.11919E-05   -0.12036E-05  5711   0.179E-02    0.207E-03
DAV:   8    -0.163206838507E+03   -0.17557E-06   -0.16562E-06  3668   0.136E-02
  79 F= -.16320684E+03 E0= -.16319801E+03  d E =0.162812E-02
       N       E                     dE             d eps       ncg     rms          rms(c)
DAV:   1    -0.163207839871E+03   -0.10015E-02   -0.62182E-01  6255   0.157E+00    0.549E-02
DAV:   2    -0.163208874678E+03   -0.10348E-02   -0.11064E-02  7549   0.321E-01    0.272E-02
DAV:   3    -0.163208916703E+03   -0.42025E-04   -0.56172E-04  6296   0.190E-01    0.168E-02
DAV:   4    -0.163208925916E+03   -0.92130E-05   -0.11172E-04  6260   0.161E-01    0.106E-02
DAV:   5    -0.163208927719E+03   -0.18032E-05   -0.60820E-05  7460   0.107E-01    0.613E-03
DAV:   6    -0.163208929881E+03   -0.21618E-05   -0.36200E-05  6719   0.504E-02    0.314E-03
DAV:   7    -0.163208931536E+03   -0.16548E-05   -0.17064E-05  5919   0.213E-02    0.244E-03
DAV:   8    -0.163208931627E+03   -0.91110E-07   -0.21224E-06  3981   0.166E-02
  80 F= -.16320893E+03 E0= -.16320021E+03  d E =-.209312E-02
       N       E                     dE             d eps       ncg     rms          rms(c)
DAV:   1    -0.163206434339E+03    0.24972E-02   -0.43371E-01  6256   0.130E+00    0.459E-02
DAV:   2    -0.163207142592E+03   -0.70825E-03   -0.76184E-03  7614   0.264E-01    0.229E-02
DAV:   3    -0.163207167552E+03   -0.24960E-04   -0.38204E-04  6408   0.156E-01    0.141E-02
DAV:   4    -0.163207173281E+03   -0.57286E-05   -0.73693E-05  6263   0.130E-01    0.886E-03
DAV:   5    -0.163207173199E+03    0.81927E-07   -0.35561E-05  7159   0.927E-02    0.499E-03
DAV:   6    -0.163207174707E+03   -0.15085E-05   -0.27907E-05  6438   0.437E-02    0.249E-03
DAV:   7    -0.163207176135E+03   -0.14276E-05   -0.14237E-05  5967   0.184E-02    0.218E-03
DAV:   8    -0.163207176336E+03   -0.20108E-06   -0.16820E-06  3748   0.132E-02
  81 F= -.16320718E+03 E0= -.16319837E+03  d E =0.175529E-02
       N       E                     dE             d eps       ncg     rms          rms(c)
DAV:   1    -0.163207842655E+03   -0.66652E-03   -0.10452E-01  6263   0.643E-01    0.226E-02
DAV:   2    -0.163208016209E+03   -0.17355E-03   -0.18467E-03  7598   0.130E-01    0.111E-02
DAV:   3    -0.163208023266E+03   -0.70576E-05   -0.89987E-05  6184   0.783E-02    0.683E-03
DAV:   4    -0.163208024850E+03   -0.15836E-05   -0.20466E-05  6256   0.681E-02    0.424E-03
DAV:   5    -0.163208025600E+03   -0.75038E-06   -0.12100E-05  6592   0.432E-02    0.277E-03
DAV:   6    -0.163208025850E+03   -0.24987E-06   -0.49742E-06  4934   0.215E-02
  82 F= -.16320803E+03 E0= -.16319926E+03  d E =-.849514E-03
       N       E                     dE             d eps       ncg     rms          rms(c)
DAV:   1    -0.163208825132E+03   -0.79953E-03   -0.14886E+00  6263   0.241E+00    0.844E-02
DAV:   2    -0.163211325097E+03   -0.25000E-02   -0.26807E-02  7559   0.501E-01    0.423E-02
DAV:   3    -0.163211425923E+03   -0.10083E-03   -0.13728E-03  6400   0.298E-01    0.262E-02
DAV:   4    -0.163211448107E+03   -0.22183E-04   -0.25014E-04  6271   0.245E-01    0.168E-02
DAV:   5    -0.163211448546E+03   -0.43926E-06   -0.13781E-04  7160   0.166E-01    0.930E-03
DAV:   6    -0.163211456988E+03   -0.84419E-05   -0.10924E-04  6807   0.727E-02    0.478E-03
DAV:   7    -0.163211460589E+03   -0.36005E-05   -0.34722E-05  6311   0.278E-02    0.362E-03
DAV:   8    -0.163211461024E+03   -0.43503E-06   -0.34597E-06  4663   0.239E-02
  83 F= -.16321146E+03 E0= -.16320285E+03  d E =-.343517E-02
       N       E                     dE             d eps       ncg     rms          rms(c)
DAV:   1    -0.163184979088E+03    0.26482E-01   -0.10196E+01  6248   0.625E+00    0.225E-01
DAV:   2    -0.163202485037E+03   -0.17506E-01   -0.18793E-01  7503   0.131E+00    0.113E-01
DAV:   3    -0.163203101599E+03   -0.61656E-03   -0.92927E-03  6432   0.782E-01    0.701E-02
DAV:   4    -0.163203236403E+03   -0.13480E-03   -0.17091E-03  6399   0.621E-01    0.456E-02
DAV:   5    -0.163203232583E+03    0.38207E-05   -0.85666E-04  6999   0.503E-01    0.259E-02
DAV:   6    -0.163203281380E+03   -0.48797E-04   -0.78044E-04  6623   0.204E-01    0.120E-02
DAV:   7    -0.163203315206E+03   -0.33826E-04   -0.33653E-04  6680   0.885E-02    0.973E-03
DAV:   8    -0.163203319191E+03   -0.39852E-05   -0.42997E-05  6104   0.682E-02    0.512E-03
DAV:   9    -0.163203322663E+03   -0.34713E-05   -0.18185E-05  6664   0.321E-02    0.243E-03
DAV:  10    -0.163203324504E+03   -0.18417E-05   -0.80229E-06  5104   0.178E-02    0.172E-03
DAV:  11    -0.163203325698E+03   -0.11938E-05   -0.24995E-06  4111   0.161E-02    0.117E-03
DAV:  12    -0.163203326903E+03   -0.12051E-05   -0.90354E-07  3878   0.998E-03    0.831E-04
DAV:  13    -0.163203327828E+03   -0.92472E-06   -0.95144E-07  4006   0.386E-03
  84 F= -.16320333E+03 E0= -.16319428E+03  d E =0.813320E-02
       N       E                     dE             d eps       ncg     rms          rms(c)
DAV:   1    -0.163203618631E+03   -0.29173E-03   -0.18546E-02  6334   0.295E-01    0.952E-03
DAV:   2    -0.163203651038E+03   -0.32407E-04   -0.33072E-04  7424   0.545E-02    0.495E-03
DAV:   3    -0.163203652910E+03   -0.18717E-05   -0.15629E-05  6071   0.342E-02    0.315E-03
DAV:   4    -0.163203653392E+03   -0.48269E-06   -0.22560E-06  4384   0.293E-02    0.195E-03
DAV:   5    -0.163203653772E+03   -0.37924E-06   -0.93564E-07  3623   0.183E-02    0.120E-03
DAV:   6    -0.163203653899E+03   -0.12730E-06   -0.81884E-07  3462   0.105E-02
  85 F= -.16320365E+03 E0= -.16319463E+03  d E =-.326071E-03
       N       E                     dE             d eps       ncg     rms          rms(c)
DAV:   1    -0.163202128807E+03    0.15250E-02   -0.31296E+00  6206   0.381E+00    0.123E-01
DAV:   2    -0.163207586664E+03   -0.54579E-02   -0.57167E-02  7403   0.731E-01    0.642E-02
DAV:   3    -0.163207803509E+03   -0.21684E-03   -0.28346E-03  6400   0.465E-01    0.405E-02
DAV:   4    -0.163207840461E+03   -0.36952E-04   -0.41244E-04  6276   0.376E-01    0.249E-02
DAV:   5    -0.163207849148E+03   -0.86870E-05   -0.34212E-04  8424   0.230E-01    0.139E-02
DAV:   6    -0.163207855290E+03   -0.61420E-05   -0.14781E-04  6375   0.102E-01    0.678E-03
DAV:   7    -0.163207861732E+03   -0.64416E-05   -0.71802E-05  6784   0.478E-02    0.504E-03
DAV:   8    -0.163207862150E+03   -0.41834E-06   -0.82831E-06  5176   0.301E-02
  86 F= -.16320786E+03 E0= -.16319915E+03  d E =-.420825E-02
       N       E                     dE             d eps       ncg     rms          rms(c)
DAV:   1    -0.163205777242E+03    0.20845E-02   -0.36582E-01  6223   0.130E+00    0.425E-02
DAV:   2    -0.163206395116E+03   -0.61787E-03   -0.64845E-03  7479   0.244E-01    0.220E-02
DAV:   3    -0.163206416448E+03   -0.21332E-04   -0.31702E-04  6232   0.164E-01    0.137E-02
DAV:   4    -0.163206419625E+03   -0.31766E-05   -0.58066E-05  6327   0.133E-01    0.808E-03
DAV:   5    -0.163206422580E+03   -0.29558E-05   -0.48663E-05  8448   0.791E-02    0.512E-03
DAV:   6    -0.163206422585E+03   -0.48603E-08   -0.15322E-05  6430   0.400E-02    0.278E-03
DAV:   7    -0.163206423506E+03   -0.92119E-06   -0.95311E-06  5479   0.201E-02
  87 F= -.16320642E+03 E0= -.16319761E+03  d E =0.143864E-02
       N       E                     dE             d eps       ncg     rms          rms(c)
DAV:   1    -0.163203154040E+03    0.32685E-02   -0.45380E+00  6206   0.457E+00    0.149E-01
DAV:   2    -0.163211128158E+03   -0.79741E-02   -0.83703E-02  7487   0.886E-01    0.773E-02
DAV:   3    -0.163211455148E+03   -0.32699E-03   -0.43090E-03  6328   0.558E-01    0.485E-02
DAV:   4    -0.163211507619E+03   -0.52471E-04   -0.61079E-04  6294   0.443E-01    0.295E-02
DAV:   5    -0.163211523029E+03   -0.15410E-04   -0.49620E-04  8416   0.274E-01    0.167E-02
DAV:   6    -0.163211532046E+03   -0.90171E-05   -0.20962E-04  6375   0.121E-01    0.809E-03
DAV:   7    -0.163211541204E+03   -0.91579E-05   -0.10087E-04  6783   0.551E-02    0.582E-03
DAV:   8    -0.163211542222E+03   -0.10179E-05   -0.13209E-05  5696   0.339E-02    0.344E-03
DAV:   9    -0.163211543341E+03   -0.11190E-05   -0.65585E-06  5358   0.166E-02    0.166E-03
DAV:  10    -0.163211543833E+03   -0.49146E-06   -0.16972E-06  3799   0.143E-02
  88 F= -.16321154E+03 E0= -.16320308E+03  d E =-.512033E-02
       N       E                     dE             d eps       ncg     rms          rms(c)
DAV:   1    -0.163201946320E+03    0.95970E-02   -0.30435E+00  6206   0.373E+00    0.122E-01
DAV:   2    -0.163207150253E+03   -0.52039E-02   -0.54643E-02  7527   0.696E-01    0.645E-02
DAV:   3    -0.163207302317E+03   -0.15206E-03   -0.23458E-03  6326   0.415E-01    0.399E-02
DAV:   4    -0.163207333222E+03   -0.30905E-04   -0.38315E-04  6383   0.336E-01    0.244E-02
DAV:   5    -0.163207339248E+03   -0.60261E-05   -0.26577E-04  8197   0.247E-01    0.139E-02
DAV:   6    -0.163207338076E+03    0.11726E-05   -0.11534E-04  6319   0.100E-01    0.629E-03
DAV:   7    -0.163207344469E+03   -0.63936E-05   -0.68156E-05  6783   0.512E-02    0.476E-03
DAV:   8    -0.163207345808E+03   -0.13390E-05   -0.12435E-05  5400   0.284E-02    0.282E-03
DAV:   9    -0.163207346522E+03   -0.71383E-06   -0.51817E-06  4815   0.178E-02
  89 F= -.16320735E+03 E0= -.16319860E+03  d E =0.419731E-02
       N       E                     dE             d eps       ncg     rms          rms(c)
DAV:   1    -0.163207787823E+03   -0.44201E-03   -0.47648E-02  6284   0.461E-01    0.157E-02
DAV:   2    -0.163207870037E+03   -0.82214E-04   -0.85660E-04  7454   0.885E-02    0.787E-03
DAV:   3    -0.163207874007E+03   -0.39698E-05   -0.44234E-05  6200   0.556E-02    0.494E-03
DAV:   4    -0.163207874755E+03   -0.74774E-06   -0.80702E-06  5815   0.474E-02    0.296E-03
DAV:   5    -0.163207875227E+03   -0.47233E-06   -0.34774E-06  4760   0.284E-02    0.175E-03
DAV:   6    -0.163207875398E+03   -0.17131E-06   -0.31309E-06  4510   0.166E-02
  90 F= -.16320788E+03 E0= -.16319916E+03  d E =-.528876E-03
       N       E                     dE             d eps       ncg     rms          rms(c)
DAV:   1    -0.163207954490E+03   -0.79262E-04   -0.18207E+00  6206   0.281E+00    0.941E-02
DAV:   2    -0.163211092874E+03   -0.31384E-02   -0.33119E-02  7583   0.549E-01    0.487E-02
DAV:   3    -0.163211215301E+03   -0.12243E-03   -0.16022E-03  6376   0.337E-01    0.307E-02
DAV:   4    -0.163211239049E+03   -0.23748E-04   -0.25265E-04  6252   0.283E-01    0.194E-02
DAV:   5    -0.163211239155E+03   -0.10572E-06   -0.17473E-04  7960   0.177E-01    0.101E-02
DAV:   6    -0.163211245802E+03   -0.66468E-05   -0.10069E-04  6439   0.718E-02    0.499E-03
DAV:   7    -0.163211249232E+03   -0.34300E-05   -0.36582E-05  6447   0.307E-02    0.390E-03
DAV:   8    -0.163211249299E+03   -0.67055E-07   -0.39764E-06  4726   0.266E-02
  91 F= -.16321125E+03 E0= -.16320275E+03  d E =-.337390E-02
       N       E                     dE             d eps       ncg     rms          rms(c)
DAV:   1    -0.163194112091E+03    0.17137E-01   -0.61956E+00  6206   0.516E+00    0.175E-01
DAV:   2    -0.163204772208E+03   -0.10660E-01   -0.11269E-01  7680   0.995E-01    0.916E-02
DAV:   3    -0.163205087022E+03   -0.31481E-03   -0.48415E-03  6324   0.576E-01    0.572E-02
DAV:   4    -0.163205157447E+03   -0.70424E-04   -0.78357E-04  6551   0.484E-01    0.369E-02
DAV:   5    -0.163205143837E+03    0.13610E-04   -0.48724E-04  7816   0.367E-01    0.197E-02
DAV:   6    -0.163205154997E+03   -0.11160E-04   -0.30213E-04  6190   0.131E-01    0.869E-03
DAV:   7    -0.163205168412E+03   -0.13415E-04   -0.13773E-04  6687   0.570E-02    0.671E-03
DAV:   8    -0.163205169878E+03   -0.14660E-05   -0.13948E-05  5720   0.423E-02    0.382E-03
DAV:   9    -0.163205171276E+03   -0.13977E-05   -0.75380E-06  5696   0.196E-02    0.176E-03
DAV:  10    -0.163205171936E+03   -0.66064E-06   -0.38884E-06  4664   0.162E-02
  92 F= -.16320517E+03 E0= -.16319626E+03  d E =0.607736E-02
       N       E                     dE             d eps       ncg     rms          rms(c)
DAV:   1    -0.163205926261E+03   -0.75499E-03   -0.31845E-01  6222   0.118E+00    0.397E-02
DAV:   2    -0.163206470158E+03   -0.54390E-03   -0.57129E-03  7695   0.226E-01    0.202E-02
DAV:   3    -0.163206492187E+03   -0.22029E-04   -0.26801E-04  6399   0.133E-01    0.129E-02
DAV:   4    -0.163206496494E+03   -0.43072E-05   -0.41412E-05  6343   0.122E-01    0.816E-03
DAV:   5    -0.163206496534E+03   -0.39756E-07   -0.27002E-05  8031   0.749E-02    0.418E-03
DAV:   6    -0.163206497444E+03   -0.91030E-06   -0.14802E-05  6182   0.294E-02    0.212E-03
DAV:   7    -0.163206497952E+03   -0.50767E-06   -0.60217E-06  5255   0.123E-02
  93 F= -.16320650E+03 E0= -.16319769E+03  d E =-.132602E-02
       N       E                     dE             d eps       ncg     rms          rms(c)
DAV:   1    -0.163206969281E+03   -0.47184E-03   -0.12461E+00  6206   0.232E+00    0.780E-02
DAV:   2    -0.163209106518E+03   -0.21372E-02   -0.22561E-02  7656   0.454E-01    0.403E-02
DAV:   3    -0.163209187201E+03   -0.80682E-04   -0.10586E-03  6360   0.278E-01    0.255E-02
DAV:   4    -0.163209203957E+03   -0.16757E-04   -0.17475E-04  6294   0.240E-01    0.163E-02
DAV:   5    -0.163209202353E+03    0.16047E-05   -0.11784E-04  7808   0.148E-01    0.826E-03
DAV:   6    -0.163209207086E+03   -0.47333E-05   -0.67988E-05  6334   0.589E-02    0.415E-03
DAV:   7    -0.163209209529E+03   -0.24434E-05   -0.25974E-05  6207   0.257E-02    0.338E-03
DAV:   8    -0.163209209645E+03   -0.11585E-06   -0.27588E-06  4200   0.237E-02
  94 F= -.16320921E+03 E0= -.16320059E+03  d E =-.271169E-02
       N       E                     dE             d eps       ncg     rms          rms(c)
DAV:   1    -0.163201316856E+03    0.78927E-02   -0.23816E+00  6206   0.319E+00    0.109E-01
DAV:   2    -0.163205341194E+03   -0.40243E-02   -0.42621E-02  7704   0.614E-01    0.563E-02
DAV:   3    -0.163205470877E+03   -0.12968E-03   -0.19297E-03  6536   0.356E-01    0.356E-02
DAV:   4    -0.163205495462E+03   -0.24585E-04   -0.27480E-04  6278   0.303E-01    0.229E-02
DAV:   5    -0.163205488141E+03    0.73209E-05   -0.18633E-04  7716   0.227E-01    0.117E-02
DAV:   6    -0.163205493356E+03   -0.52150E-05   -0.11770E-04  6317   0.815E-02    0.519E-03
DAV:   7    -0.163205498416E+03   -0.50600E-05   -0.51016E-05  6719   0.327E-02    0.418E-03
DAV:   8    -0.163205498987E+03   -0.57096E-06   -0.49193E-06  4728   0.270E-02
  95 F= -.16320550E+03 E0= -.16319662E+03  d E =0.371066E-02
       N       E                     dE             d eps       ncg     rms          rms(c)
DAV:   1    -0.163205965049E+03   -0.46663E-03   -0.11807E+00  6206   0.225E+00    0.765E-02
DAV:   2    -0.163207981617E+03   -0.20166E-02   -0.21289E-02  7644   0.442E-01    0.388E-02
DAV:   3    -0.163208060950E+03   -0.79333E-04   -0.10257E-03  6256   0.274E-01    0.244E-02
DAV:   4    -0.163208077081E+03   -0.16131E-04   -0.18991E-04  6267   0.244E-01    0.155E-02
DAV:   5    -0.163208079611E+03   -0.25301E-05   -0.13950E-04  8326   0.143E-01    0.872E-03
DAV:   6    -0.163208083412E+03   -0.38009E-05   -0.59506E-05  6326   0.597E-02    0.444E-03
DAV:   7    -0.163208085090E+03   -0.16788E-05   -0.20796E-05  6055   0.271E-02    0.321E-03
DAV:   8    -0.163208085083E+03    0.71595E-08   -0.31241E-06  4238   0.229E-02
  96 F= -.16320809E+03 E0= -.16319939E+03  d E =-.258610E-02
       N       E                     dE             d eps       ncg     rms          rms(c)
DAV:   1    -0.163208644153E+03   -0.55906E-03   -0.81507E-02  6232   0.582E-01    0.199E-02
DAV:   2    -0.163208781529E+03   -0.13738E-03   -0.14556E-03  7520   0.117E-01    0.105E-02
DAV:   3    -0.163208787334E+03   -0.58055E-05   -0.72754E-05  6247   0.811E-02    0.651E-03
DAV:   4    -0.163208788724E+03   -0.13895E-05   -0.15213E-05  6080   0.638E-02    0.425E-03
DAV:   5    -0.163208789122E+03   -0.39772E-06   -0.98532E-06  6471   0.406E-02    0.239E-03
DAV:   6    -0.163208789801E+03   -0.67899E-06   -0.71468E-06  5359   0.186E-02
  97 F= -.16320879E+03 E0= -.16320014E+03  d E =-.704717E-03
       N       E                     dE             d eps       ncg     rms          rms(c)
DAV:   1    -0.163197648696E+03    0.11140E-01   -0.37686E+00  6214   0.393E+00    0.137E-01
DAV:   2    -0.163204003529E+03   -0.63548E-02   -0.67662E-02  7736   0.778E-01    0.706E-02
DAV:   3    -0.163204206336E+03   -0.20281E-03   -0.30631E-03  6408   0.454E-01    0.442E-02
DAV:   4    -0.163204249316E+03   -0.42980E-04   -0.50126E-04  6350   0.392E-01    0.289E-02
DAV:   5    -0.163204236807E+03    0.12510E-04   -0.30579E-04  7526   0.290E-01    0.149E-02
DAV:   6    -0.163204251018E+03   -0.14211E-04   -0.23381E-04  6414   0.105E-01    0.695E-03
DAV:   7    -0.163204259341E+03   -0.83229E-05   -0.82351E-05  6704   0.403E-02    0.564E-03
DAV:   8    -0.163204260235E+03   -0.89417E-06   -0.83715E-06  5248   0.415E-02
  98 F= -.16320426E+03 E0= -.16319528E+03  d E =0.452957E-02
       N       E                     dE             d eps       ncg     rms          rms(c)
DAV:   1    -0.163204382555E+03   -0.12321E-03   -0.14720E+00  6222   0.247E+00    0.857E-02
DAV:   2    -0.163206891663E+03   -0.25091E-02   -0.26583E-02  7719   0.494E-01    0.431E-02
DAV:   3    -0.163206993753E+03   -0.10209E-03   -0.13206E-03  6228   0.304E-01    0.270E-02
DAV:   4    -0.163207014446E+03   -0.20692E-04   -0.23970E-04  6318   0.267E-01    0.173E-02
DAV:   5    -0.163207016226E+03   -0.17798E-05   -0.16643E-04  8029   0.161E-01    0.959E-03
DAV:   6    -0.163207022272E+03   -0.60464E-05   -0.85005E-05  6486   0.647E-02    0.491E-03
DAV:   7    -0.163207024482E+03   -0.22101E-05   -0.26466E-05  6079   0.290E-02    0.354E-03
DAV:   8    -0.163207024457E+03    0.25102E-07   -0.35615E-06  4470   0.260E-02
  99 F= -.16320702E+03 E0= -.16319826E+03  d E =-.276422E-02
       N       E                     dE             d eps       ncg     rms          rms(c)
DAV:   1    -0.163207826603E+03   -0.80212E-03   -0.67742E-01  6214   0.167E+00    0.576E-02
DAV:   2    -0.163208969876E+03   -0.11433E-02   -0.12152E-02  7648   0.335E-01    0.296E-02
DAV:   3    -0.163209014598E+03   -0.44722E-04   -0.59284E-04  6344   0.215E-01    0.185E-02
DAV:   4    -0.163209024660E+03   -0.10062E-04   -0.11611E-04  6278   0.180E-01    0.120E-02
DAV:   5    -0.163209025248E+03   -0.58807E-06   -0.74799E-05  7752   0.112E-01    0.640E-03
DAV:   6    -0.163209029171E+03   -0.39228E-05   -0.47455E-05  6511   0.477E-02    0.338E-03
DAV:   7    -0.163209030557E+03   -0.13863E-05   -0.13550E-05  5783   0.190E-02    0.265E-03
DAV:   8    -0.163209030783E+03   -0.22579E-06   -0.21445E-06  3975   0.197E-02
 100 F= -.16320903E+03 E0= -.16320040E+03  d E =-.200633E-02
