       N       E                     dE             d eps       ncg     rms          rms(c)
DAV:   1     0.111645828386E+04    0.11165E+04   -0.39718E+04 34928   0.345E+03
DAV:   2     0.171898120425E+03   -0.94456E+03   -0.91432E+03 29920   0.812E+02
DAV:   3    -0.214565063589E+02   -0.19335E+03   -0.18609E+03 32432   0.213E+02
DAV:   4    -0.360323880322E+02   -0.14576E+02   -0.14367E+02 34164   0.668E+01
DAV:   5    -0.364015758066E+02   -0.36919E+00   -0.36818E+00 33072   0.116E+01    0.637E+00
DAV:   6    -0.361986532387E+02    0.20292E+00   -0.16845E-01 33360   0.217E+00    0.375E+00
DAV:   7    -0.360817350524E+02    0.11692E+00   -0.19070E-01 32348   0.208E+00    0.271E-01
DAV:   8    -0.360885672896E+02   -0.68322E-02   -0.20346E-02 33560   0.870E-01    0.130E-01
DAV:   9    -0.360902655392E+02   -0.16982E-02   -0.19290E-03 32160   0.142E-01    0.225E-02
DAV:  10    -0.360902904370E+02   -0.24898E-04   -0.66475E-05 35060   0.545E-02    0.942E-03
DAV:  11    -0.360903011847E+02   -0.10748E-04   -0.21967E-05 32180   0.225E-02    0.406E-03
DAV:  12    -0.360903018638E+02   -0.67913E-06   -0.22999E-06 33128   0.136E-02    0.642E-04
DAV:  13    -0.360903016723E+02    0.19151E-06   -0.63610E-08 31228   0.142E-03    0.468E-04
DAV:  14    -0.360903015074E+02    0.16489E-06   -0.48169E-09 20372   0.437E-04    0.149E-04
DAV:  15    -0.360903015579E+02   -0.50488E-07   -0.10845E-09 17504   0.223E-04    0.140E-04
DAV:  16    -0.360903015620E+02   -0.41327E-08   -0.37092E-10 17192   0.129E-04
   1 F= -.36090302E+02 E0= -.36090290E+02  d E =-.360903E+02
       N       E                     dE             d eps       ncg     rms          rms(c)
DAV:   1    -0.389175172228E+02   -0.28272E+01   -0.41798E+01 38528   0.718E+01    0.972E+00
DAV:   2    -0.368564793264E+02    0.20610E+01   -0.27920E+00 36556   0.161E+01    0.503E+00
DAV:   3    -0.361596085565E+02    0.69687E+00   -0.14329E+00 36980   0.108E+01    0.106E+00
DAV:   4    -0.361173560431E+02    0.42253E-01   -0.13257E-01 36112   0.358E+00    0.490E-01
DAV:   5    -0.361144431003E+02    0.29129E-02   -0.53373E-03 34124   0.418E-01    0.233E-01
DAV:   6    -0.361142062080E+02    0.23689E-03   -0.15684E-03 36292   0.443E-01    0.920E-03
DAV:   7    -0.361142120386E+02   -0.58305E-05   -0.60212E-05 33320   0.558E-02    0.112E-02
DAV:   8    -0.361142134812E+02   -0.14426E-05   -0.14679E-05 33992   0.405E-02    0.223E-03
DAV:   9    -0.361142137396E+02   -0.25838E-06   -0.34422E-07 38352   0.323E-03    0.543E-04
DAV:  10    -0.361142136428E+02    0.96825E-07   -0.84996E-08 33084   0.280E-03    0.175E-04
DAV:  11    -0.361142136387E+02    0.40927E-08   -0.29838E-09 17636   0.508E-04
   2 F= -.36114214E+02 E0= -.36114153E+02  d E =-.239121E-01
       N       E                     dE             d eps       ncg     rms          rms(c)
DAV:   1    -0.365564198096E+02   -0.44221E+00   -0.58469E+00 38496   0.245E+01    0.386E+00
DAV:   2    -0.362402730672E+02    0.31615E+00   -0.47725E-01 36776   0.689E+00    0.195E+00
DAV:   3    -0.361373218459E+02    0.10295E+00   -0.18576E-01 37052   0.394E+00    0.475E-01
DAV:   4    -0.361307362836E+02    0.65856E-02   -0.17311E-02 35296   0.131E+00    0.198E-01
DAV:   5    -0.361304882180E+02    0.24807E-03   -0.71110E-04 34368   0.147E-01    0.866E-02
DAV:   6    -0.361304997112E+02   -0.11493E-04   -0.86687E-05 33884   0.104E-01    0.234E-03
DAV:   7    -0.361305011437E+02   -0.14324E-05   -0.35943E-06 38352   0.126E-02    0.326E-03
DAV:   8    -0.361305006684E+02    0.47525E-06   -0.90442E-07 34124   0.949E-03    0.319E-04
DAV:   9    -0.361305006439E+02    0.24491E-07   -0.18769E-08 22448   0.118E-03    0.193E-04
DAV:  10    -0.361305006573E+02   -0.13330E-07   -0.45764E-09 17528   0.523E-04    0.139E-04
DAV:  11    -0.361305006639E+02   -0.66175E-08   -0.51126E-10 16320   0.153E-04
   3 F= -.36130501E+02 E0= -.36130473E+02  d E =-.401991E-01
