 vasp.6.3.2 27Jun22 (build Nov 28 2025 11:56:12) complex                         
 executed on             LinuxGNU date 2025.12.08  18:03:35
 running    2 mpi-ranks, with    1 threads/rank
 distrk:  each k-point on    2 cores,    1 groups
 distr:  one band on NCORE=   1 cores,    2 groups


--------------------------------------------------------------------------------------------------------


 INCAR:
   ISTART = 1            (Read existing wavefunction, if there)
   ISPIN = 1            (Non-Spin polarised DFT)
   LREAL = .FALSE.       (Projection operators: automatic)
   LWAVE = .TRUE.        (Write WAVECAR or not)
   LCHARG = .TRUE.        (Write CHGCAR or not)
   ADDGRID = .TRUE.        (Increase grid, helps GGA convergence)
   ISMEAR = 0            (Gaussian smearing, metals:1)
   SIGMA = 0.05         (Smearing value in eV, metals:0.2)
   NELM = 90           (Max electronic SCF steps)
   NELMIN = 6            (Min electronic SCF steps)
   EDIFF = 1E-08        (SCF energy convergence, in eV)
   NSW = 100          (Max ionic steps)
   IBRION = 2            (Algorithm: 0-MD, 1-Quasi-New, 2-CG)
   ISIF = 3            (Stress/relaxation: 2-Ions, 3-Shape/Ions/V, 4-Shape/Ions)
   EDIFFG = -2E-02        (Ionic convergence, eV/AA)

 POTCAR:    PAW_PBE Ge_d 03Jul2007                
 POTCAR:    PAW_PBE Ge_d 03Jul2007                
   VRHFIN =Ge: 3d4s4p                                                                               
   LEXCH  = PE                                                                                      
   EATOM  =  2596.2402 eV,  190.8183 Ry                                                             
                                                                                                    
   TITEL  = PAW_PBE Ge_d 03Jul2007                                                                  
   LULTRA =        F    use ultrasoft PP ?                                                          
   IUNSCR =        1    unscreen: 0-lin 1-nonlin 2-no                                               
   RPACOR =    2.000    partial core radius                                                         
   POMASS =   72.610; ZVAL   =   14.000    mass and valenz                                          
   RCORE  =    2.300    outmost cutoff radius                                                       
   RWIGS  =    2.300; RWIGS  =    1.217    wigner-seitz radius (au A)                               
   ENMAX  =  310.294; ENMIN  =  232.720 eV                                                          
   ICORE  =        3    local potential                                                             
   LCOR   =        T    correct aug charges                                                         
   LPAW   =        T    paw PP                                                                      
   EAUG   =  531.356                                                                                
   DEXC   =    0.000                                                                                
   RMAX   =    2.342    core radius for proj-oper                                                   
   RAUG   =    1.300    factor for augmentation sphere                                              
   RDEP   =    2.318    radius for radial grids                                                     
   RDEPT  =    1.783    core radius for aug-charge                                                  
                                                                                                    
   Atomic configuration                                                                             
    9 entries                                                                                       
     n  l   j            E        occ.                                                              
     1  0  0.50    -10959.8463   2.0000                                                             
     2  0  0.50     -1371.6056   2.0000                                                             
     2  1  1.50     -1198.4791   6.0000                                                             
     3  0  0.50      -168.4733   2.0000                                                             
     3  1  1.50      -115.6019   6.0000                                                             
     3  2  2.50       -29.3106  10.0000                                                             
     4  0  0.50       -11.7309   2.0000                                                             
     4  1  0.50        -3.8952   2.0000                                                             
     4  3  2.50        -4.0817   0.0000                                                             
   Description                                                                                      
     l       E           TYP  RCUT    TYP  RCUT                                                     
     2    -29.3105938     23  2.200                                                                 
     2    -13.6058260     23  2.200                                                                 
     0    -11.7309493     23  2.300                                                                 
     0     -7.4578696     23  2.300                                                                 
     1     -3.8952261     23  2.300                                                                 
     1      6.1178114     23  2.300                                                                 
     3     -1.3605826     23  2.300                                                                 
  local pseudopotential read in
  partial core-charges read in
  partial kinetic energy density read in
  atomic valenz-charges read in
  non local Contribution for L=           2  read in
    real space projection operators read in
  non local Contribution for L=           2  read in
    real space projection operators read in
  non local Contribution for L=           0  read in
    real space projection operators read in
  non local Contribution for L=           0  read in
    real space projection operators read in
  non local Contribution for L=           1  read in
    real space projection operators read in
  non local Contribution for L=           1  read in
    real space projection operators read in
    PAW grid and wavefunctions read in

   number of l-projection  operators is LMAX  =           6
   number of lm-projection operators is LMMAX =          18

  PAW_PBE Ge_d 03Jul2007                :
 energy of atom  1       EATOM=-2596.2402
 kinetic energy error for atom=    0.0277 (will be added to EATOM!!)


 POSCAR: Ge8
  positions in direct lattice
  No initial velocities read in
 exchange correlation table for  LEXCH =        8
   RHO(1)=    0.500       N(1)  =     2000
   RHO(2)=  100.500       N(2)  =     4000



--------------------------------------------------------------------------------------------------------


 ion  position               nearest neighbor table
   1  0.000  0.000  0.500-   2 2.46   4 2.46   6 2.46   8 2.46
   2  0.250  0.250  0.750-   1 2.46   3 2.46   5 2.46   7 2.46
   3  0.000  0.500  0.000-   2 2.46   4 2.46   6 2.46   8 2.46
   4  0.250  0.750  0.250-   1 2.46   3 2.46   5 2.46   7 2.46
   5  0.500  0.000  0.000-   2 2.46   4 2.46   6 2.46   8 2.46
   6  0.750  0.250  0.250-   1 2.46   3 2.46   5 2.46   7 2.46
   7  0.500  0.500  0.500-   2 2.46   4 2.46   6 2.46   8 2.46
   8  0.750  0.750  0.750-   1 2.46   3 2.46   5 2.46   7 2.46

  LATTYP: Found a simple cubic cell.
 ALAT       =     5.6748542149
  
  Lattice vectors:
  
 A1 = (   5.6748542149,   0.0000000000,   0.0000000000)
 A2 = (  -0.0000000000,   5.6748542149,   0.0000000000)
 A3 = (   0.0000000000,   0.0000000000,   5.6748542149)


Analysis of symmetry for initial positions (statically):
=====================================================================
 Subroutine PRICEL returns following result:
 
  LATTYP: Found a face centered cubic cell.
 ALAT       =     5.6748542149
  
  Lattice vectors:
  
 A1 = (   2.8374271074,  -2.8374271074,   0.0000000000)
 A2 = (   2.8374271074,   0.0000000000,   2.8374271074)
 A3 = (   0.0000000000,  -2.8374271074,   2.8374271074)
 
   4 primitive cells build up your supercell.
 

 Routine SETGRP: Setting up the symmetry group for a 
 simple cubic supercell.


 Subroutine GETGRP returns: Found 48 space group operations
 (whereof 24 operations were pure point group operations)
 out of a pool of 48 trial point group operations.


The static configuration has the point symmetry T_d .
 The point group associated with its full space group is O_h .


Analysis of symmetry for dynamics (positions and initial velocities):
=====================================================================
 Subroutine PRICEL returns following result:
 
  LATTYP: Found a face centered cubic cell.
 ALAT       =     5.6748542149
  
  Lattice vectors:
  
 A1 = (   2.8374271074,  -2.8374271074,   0.0000000000)
 A2 = (   2.8374271074,   0.0000000000,   2.8374271074)
 A3 = (   0.0000000000,  -2.8374271074,   2.8374271074)
 
   4 primitive cells build up your supercell.
 

 Routine SETGRP: Setting up the symmetry group for a 
 simple cubic supercell.


 Subroutine GETGRP returns: Found 48 space group operations
 (whereof 24 operations were pure point group operations)
 out of a pool of 48 trial point group operations.


The dynamic configuration has the point symmetry T_d .
 The point group associated with its full space group is O_h .


 Subroutine INISYM returns: Found 48 space group operations
 (whereof 24 operations are pure point group operations),
 and found     4 'primitive' translations


----------------------------------------------------------------------------------------

                                     Primitive cell                                     

  volume of cell :      45.6882

  direct lattice vectors                    reciprocal lattice vectors
     2.837427107 -2.837427107  0.000000000     0.176215981 -0.176215981 -0.176215981
     2.837427107  0.000000000  2.837427107     0.176215981  0.176215981  0.176215981
     0.000000000 -2.837427107  2.837427107    -0.176215981 -0.176215981  0.176215981

  length of vectors
     4.012727898  4.012727898  4.012727898     0.305215031  0.305215031  0.305215031

  position of ions in fractional coordinates (direct lattice)
     0.500000000  0.500000000  0.500000000
     0.250000000  0.250000000  0.250000000

  ion indices of the primitive-cell ions
   primitive index   ion index
                 1           1
                 2           2

----------------------------------------------------------------------------------------



 KPOINTS: K-Spacing Value to Generate K-Mesh: 0.01

Automatic generation of k-mesh.
 Grid dimensions read from file:
 generate k-points for:   18   18   18

 Generating k-lattice:

  Cartesian coordinates                     Fractional coordinates (reciprocal lattice)
     0.009789777  0.000000000 -0.000000000     0.055555556 -0.000000000  0.000000000
     0.000000000  0.009789777  0.000000000     0.000000000  0.055555556  0.000000000
    -0.000000000 -0.000000000  0.009789777     0.000000000  0.000000000  0.055555556

  Length of vectors
     0.009789777  0.009789777  0.009789777

  Shift w.r.t. Gamma in fractional coordinates (k-lattice)
     0.000000000  0.000000000  0.000000000

 
 Subroutine IBZKPT returns following result:
 ===========================================
 
 Found    220 irreducible k-points:
 
 Following reciprocal coordinates:
            Coordinates               Weight
  0.000000  0.000000  0.000000      1.000000
  0.055556  0.000000  0.000000      6.000000
  0.111111  0.000000  0.000000      6.000000
  0.166667  0.000000  0.000000      6.000000
  0.222222  0.000000  0.000000      6.000000
  0.277778  0.000000  0.000000      6.000000
  0.333333  0.000000  0.000000      6.000000
  0.388889  0.000000  0.000000      6.000000
  0.444444  0.000000  0.000000      6.000000
  0.500000  0.000000  0.000000      3.000000
  0.055556  0.055556  0.000000     12.000000
  0.111111  0.055556  0.000000     24.000000
  0.166667  0.055556  0.000000     24.000000
  0.222222  0.055556  0.000000     24.000000
  0.277778  0.055556  0.000000     24.000000
  0.333333  0.055556  0.000000     24.000000
  0.388889  0.055556  0.000000     24.000000
  0.444444  0.055556  0.000000     24.000000
  0.500000  0.055556  0.000000     12.000000
  0.111111  0.111111  0.000000     12.000000
  0.166667  0.111111  0.000000     24.000000
  0.222222  0.111111  0.000000     24.000000
  0.277778  0.111111  0.000000     24.000000
  0.333333  0.111111  0.000000     24.000000
  0.388889  0.111111  0.000000     24.000000
  0.444444  0.111111  0.000000     24.000000
  0.500000  0.111111  0.000000     12.000000
  0.166667  0.166667  0.000000     12.000000
  0.222222  0.166667  0.000000     24.000000
  0.277778  0.166667  0.000000     24.000000
  0.333333  0.166667  0.000000     24.000000
  0.388889  0.166667  0.000000     24.000000
  0.444444  0.166667  0.000000     24.000000
  0.500000  0.166667  0.000000     12.000000
  0.222222  0.222222  0.000000     12.000000
  0.277778  0.222222  0.000000     24.000000
  0.333333  0.222222  0.000000     24.000000
  0.388889  0.222222  0.000000     24.000000
  0.444444  0.222222  0.000000     24.000000
  0.500000  0.222222  0.000000     12.000000
  0.277778  0.277778  0.000000     12.000000
  0.333333  0.277778  0.000000     24.000000
  0.388889  0.277778  0.000000     24.000000
  0.444444  0.277778  0.000000     24.000000
  0.500000  0.277778  0.000000     12.000000
  0.333333  0.333333  0.000000     12.000000
  0.388889  0.333333  0.000000     24.000000
  0.444444  0.333333  0.000000     24.000000
  0.500000  0.333333  0.000000     12.000000
  0.388889  0.388889  0.000000     12.000000
  0.444444  0.388889  0.000000     24.000000
  0.500000  0.388889  0.000000     12.000000
  0.444444  0.444444  0.000000     12.000000
  0.500000  0.444444  0.000000     12.000000
  0.500000  0.500000  0.000000      3.000000
  0.055556  0.055556  0.055556      8.000000
  0.111111  0.055556  0.055556     24.000000
  0.166667  0.055556  0.055556     24.000000
  0.222222  0.055556  0.055556     24.000000
  0.277778  0.055556  0.055556     24.000000
  0.333333  0.055556  0.055556     24.000000
  0.388889  0.055556  0.055556     24.000000
  0.444444  0.055556  0.055556     24.000000
  0.500000  0.055556  0.055556     12.000000
  0.111111  0.111111  0.055556     24.000000
  0.166667  0.111111  0.055556     48.000000
  0.222222  0.111111  0.055556     48.000000
  0.277778  0.111111  0.055556     48.000000
  0.333333  0.111111  0.055556     48.000000
  0.388889  0.111111  0.055556     48.000000
  0.444444  0.111111  0.055556     48.000000
  0.500000  0.111111  0.055556     24.000000
  0.166667  0.166667  0.055556     24.000000
  0.222222  0.166667  0.055556     48.000000
  0.277778  0.166667  0.055556     48.000000
  0.333333  0.166667  0.055556     48.000000
  0.388889  0.166667  0.055556     48.000000
  0.444444  0.166667  0.055556     48.000000
  0.500000  0.166667  0.055556     24.000000
  0.222222  0.222222  0.055556     24.000000
  0.277778  0.222222  0.055556     48.000000
  0.333333  0.222222  0.055556     48.000000
  0.388889  0.222222  0.055556     48.000000
  0.444444  0.222222  0.055556     48.000000
  0.500000  0.222222  0.055556     24.000000
  0.277778  0.277778  0.055556     24.000000
  0.333333  0.277778  0.055556     48.000000
  0.388889  0.277778  0.055556     48.000000
  0.444444  0.277778  0.055556     48.000000
  0.500000  0.277778  0.055556     24.000000
  0.333333  0.333333  0.055556     24.000000
  0.388889  0.333333  0.055556     48.000000
  0.444444  0.333333  0.055556     48.000000
  0.500000  0.333333  0.055556     24.000000
  0.388889  0.388889  0.055556     24.000000
  0.444444  0.388889  0.055556     48.000000
  0.500000  0.388889  0.055556     24.000000
  0.444444  0.444444  0.055556     24.000000
  0.500000  0.444444  0.055556     24.000000
  0.500000  0.500000  0.055556      6.000000
  0.111111  0.111111  0.111111      8.000000
  0.166667  0.111111  0.111111     24.000000
  0.222222  0.111111  0.111111     24.000000
  0.277778  0.111111  0.111111     24.000000
  0.333333  0.111111  0.111111     24.000000
  0.388889  0.111111  0.111111     24.000000
  0.444444  0.111111  0.111111     24.000000
  0.500000  0.111111  0.111111     12.000000
  0.166667  0.166667  0.111111     24.000000
  0.222222  0.166667  0.111111     48.000000
  0.277778  0.166667  0.111111     48.000000
  0.333333  0.166667  0.111111     48.000000
  0.388889  0.166667  0.111111     48.000000
  0.444444  0.166667  0.111111     48.000000
  0.500000  0.166667  0.111111     24.000000
  0.222222  0.222222  0.111111     24.000000
  0.277778  0.222222  0.111111     48.000000
  0.333333  0.222222  0.111111     48.000000
  0.388889  0.222222  0.111111     48.000000
  0.444444  0.222222  0.111111     48.000000
  0.500000  0.222222  0.111111     24.000000
  0.277778  0.277778  0.111111     24.000000
  0.333333  0.277778  0.111111     48.000000
  0.388889  0.277778  0.111111     48.000000
  0.444444  0.277778  0.111111     48.000000
  0.500000  0.277778  0.111111     24.000000
  0.333333  0.333333  0.111111     24.000000
  0.388889  0.333333  0.111111     48.000000
  0.444444  0.333333  0.111111     48.000000
  0.500000  0.333333  0.111111     24.000000
  0.388889  0.388889  0.111111     24.000000
  0.444444  0.388889  0.111111     48.000000
  0.500000  0.388889  0.111111     24.000000
  0.444444  0.444444  0.111111     24.000000
  0.500000  0.444444  0.111111     24.000000
  0.500000  0.500000  0.111111      6.000000
  0.166667  0.166667  0.166667      8.000000
  0.222222  0.166667  0.166667     24.000000
  0.277778  0.166667  0.166667     24.000000
  0.333333  0.166667  0.166667     24.000000
  0.388889  0.166667  0.166667     24.000000
  0.444444  0.166667  0.166667     24.000000
  0.500000  0.166667  0.166667     12.000000
  0.222222  0.222222  0.166667     24.000000
  0.277778  0.222222  0.166667     48.000000
  0.333333  0.222222  0.166667     48.000000
  0.388889  0.222222  0.166667     48.000000
  0.444444  0.222222  0.166667     48.000000
  0.500000  0.222222  0.166667     24.000000
  0.277778  0.277778  0.166667     24.000000
  0.333333  0.277778  0.166667     48.000000
  0.388889  0.277778  0.166667     48.000000
  0.444444  0.277778  0.166667     48.000000
  0.500000  0.277778  0.166667     24.000000
  0.333333  0.333333  0.166667     24.000000
  0.388889  0.333333  0.166667     48.000000
  0.444444  0.333333  0.166667     48.000000
  0.500000  0.333333  0.166667     24.000000
  0.388889  0.388889  0.166667     24.000000
  0.444444  0.388889  0.166667     48.000000
  0.500000  0.388889  0.166667     24.000000
  0.444444  0.444444  0.166667     24.000000
  0.500000  0.444444  0.166667     24.000000
  0.500000  0.500000  0.166667      6.000000
  0.222222  0.222222  0.222222      8.000000
  0.277778  0.222222  0.222222     24.000000
  0.333333  0.222222  0.222222     24.000000
  0.388889  0.222222  0.222222     24.000000
  0.444444  0.222222  0.222222     24.000000
  0.500000  0.222222  0.222222     12.000000
  0.277778  0.277778  0.222222     24.000000
  0.333333  0.277778  0.222222     48.000000
  0.388889  0.277778  0.222222     48.000000
  0.444444  0.277778  0.222222     48.000000
  0.500000  0.277778  0.222222     24.000000
  0.333333  0.333333  0.222222     24.000000
  0.388889  0.333333  0.222222     48.000000
  0.444444  0.333333  0.222222     48.000000
  0.500000  0.333333  0.222222     24.000000
  0.388889  0.388889  0.222222     24.000000
  0.444444  0.388889  0.222222     48.000000
  0.500000  0.388889  0.222222     24.000000
  0.444444  0.444444  0.222222     24.000000
  0.500000  0.444444  0.222222     24.000000
  0.500000  0.500000  0.222222      6.000000
  0.277778  0.277778  0.277778      8.000000
  0.333333  0.277778  0.277778     24.000000
  0.388889  0.277778  0.277778     24.000000
  0.444444  0.277778  0.277778     24.000000
  0.500000  0.277778  0.277778     12.000000
  0.333333  0.333333  0.277778     24.000000
  0.388889  0.333333  0.277778     48.000000
  0.444444  0.333333  0.277778     48.000000
  0.500000  0.333333  0.277778     24.000000
  0.388889  0.388889  0.277778     24.000000
  0.444444  0.388889  0.277778     48.000000
  0.500000  0.388889  0.277778     24.000000
  0.444444  0.444444  0.277778     24.000000
  0.500000  0.444444  0.277778     24.000000
  0.500000  0.500000  0.277778      6.000000
  0.333333  0.333333  0.333333      8.000000
  0.388889  0.333333  0.333333     24.000000
  0.444444  0.333333  0.333333     24.000000
  0.500000  0.333333  0.333333     12.000000
  0.388889  0.388889  0.333333     24.000000
  0.444444  0.388889  0.333333     48.000000
  0.500000  0.388889  0.333333     24.000000
  0.444444  0.444444  0.333333     24.000000
  0.500000  0.444444  0.333333     24.000000
  0.500000  0.500000  0.333333      6.000000
  0.388889  0.388889  0.388889      8.000000
  0.444444  0.388889  0.388889     24.000000
  0.500000  0.388889  0.388889     12.000000
  0.444444  0.444444  0.388889     24.000000
  0.500000  0.444444  0.388889     24.000000
  0.500000  0.500000  0.388889      6.000000
  0.444444  0.444444  0.444444      8.000000
  0.500000  0.444444  0.444444     12.000000
  0.500000  0.500000  0.444444      6.000000
  0.500000  0.500000  0.500000      1.000000
 
 Following cartesian coordinates:
            Coordinates               Weight
  0.000000  0.000000  0.000000      1.000000
  0.009790  0.000000  0.000000      6.000000
  0.019580  0.000000  0.000000      6.000000
  0.029369  0.000000  0.000000      6.000000
  0.039159  0.000000  0.000000      6.000000
  0.048949  0.000000  0.000000      6.000000
  0.058739  0.000000  0.000000      6.000000
  0.068528  0.000000  0.000000      6.000000
  0.078318  0.000000  0.000000      6.000000
  0.088108  0.000000  0.000000      3.000000
  0.009790  0.009790  0.000000     12.000000
  0.019580  0.009790  0.000000     24.000000
  0.029369  0.009790  0.000000     24.000000
  0.039159  0.009790  0.000000     24.000000
  0.048949  0.009790  0.000000     24.000000
  0.058739  0.009790  0.000000     24.000000
  0.068528  0.009790  0.000000     24.000000
  0.078318  0.009790  0.000000     24.000000
  0.088108  0.009790  0.000000     12.000000
  0.019580  0.019580  0.000000     12.000000
  0.029369  0.019580  0.000000     24.000000
  0.039159  0.019580  0.000000     24.000000
  0.048949  0.019580  0.000000     24.000000
  0.058739  0.019580  0.000000     24.000000
  0.068528  0.019580  0.000000     24.000000
  0.078318  0.019580  0.000000     24.000000
  0.088108  0.019580  0.000000     12.000000
  0.029369  0.029369  0.000000     12.000000
  0.039159  0.029369  0.000000     24.000000
  0.048949  0.029369  0.000000     24.000000
  0.058739  0.029369  0.000000     24.000000
  0.068528  0.029369  0.000000     24.000000
  0.078318  0.029369  0.000000     24.000000
  0.088108  0.029369  0.000000     12.000000
  0.039159  0.039159  0.000000     12.000000
  0.048949  0.039159  0.000000     24.000000
  0.058739  0.039159  0.000000     24.000000
  0.068528  0.039159  0.000000     24.000000
  0.078318  0.039159  0.000000     24.000000
  0.088108  0.039159  0.000000     12.000000
  0.048949  0.048949  0.000000     12.000000
  0.058739  0.048949  0.000000     24.000000
  0.068528  0.048949  0.000000     24.000000
  0.078318  0.048949  0.000000     24.000000
  0.088108  0.048949  0.000000     12.000000
  0.058739  0.058739  0.000000     12.000000
  0.068528  0.058739  0.000000     24.000000
  0.078318  0.058739  0.000000     24.000000
  0.088108  0.058739  0.000000     12.000000
  0.068528  0.068528  0.000000     12.000000
  0.078318  0.068528  0.000000     24.000000
  0.088108  0.068528  0.000000     12.000000
  0.078318  0.078318  0.000000     12.000000
  0.088108  0.078318  0.000000     12.000000
  0.088108  0.088108  0.000000      3.000000
  0.009790  0.009790  0.009790      8.000000
  0.019580  0.009790  0.009790     24.000000
  0.029369  0.009790  0.009790     24.000000
  0.039159  0.009790  0.009790     24.000000
  0.048949  0.009790  0.009790     24.000000
  0.058739  0.009790  0.009790     24.000000
  0.068528  0.009790  0.009790     24.000000
  0.078318  0.009790  0.009790     24.000000
  0.088108  0.009790  0.009790     12.000000
  0.019580  0.019580  0.009790     24.000000
  0.029369  0.019580  0.009790     48.000000
  0.039159  0.019580  0.009790     48.000000
  0.048949  0.019580  0.009790     48.000000
  0.058739  0.019580  0.009790     48.000000
  0.068528  0.019580  0.009790     48.000000
  0.078318  0.019580  0.009790     48.000000
  0.088108  0.019580  0.009790     24.000000
  0.029369  0.029369  0.009790     24.000000
  0.039159  0.029369  0.009790     48.000000
  0.048949  0.029369  0.009790     48.000000
  0.058739  0.029369  0.009790     48.000000
  0.068528  0.029369  0.009790     48.000000
  0.078318  0.029369  0.009790     48.000000
  0.088108  0.029369  0.009790     24.000000
  0.039159  0.039159  0.009790     24.000000
  0.048949  0.039159  0.009790     48.000000
  0.058739  0.039159  0.009790     48.000000
  0.068528  0.039159  0.009790     48.000000
  0.078318  0.039159  0.009790     48.000000
  0.088108  0.039159  0.009790     24.000000
  0.048949  0.048949  0.009790     24.000000
  0.058739  0.048949  0.009790     48.000000
  0.068528  0.048949  0.009790     48.000000
  0.078318  0.048949  0.009790     48.000000
  0.088108  0.048949  0.009790     24.000000
  0.058739  0.058739  0.009790     24.000000
  0.068528  0.058739  0.009790     48.000000
  0.078318  0.058739  0.009790     48.000000
  0.088108  0.058739  0.009790     24.000000
  0.068528  0.068528  0.009790     24.000000
  0.078318  0.068528  0.009790     48.000000
  0.088108  0.068528  0.009790     24.000000
  0.078318  0.078318  0.009790     24.000000
  0.088108  0.078318  0.009790     24.000000
  0.088108  0.088108  0.009790      6.000000
  0.019580  0.019580  0.019580      8.000000
  0.029369  0.019580  0.019580     24.000000
  0.039159  0.019580  0.019580     24.000000
  0.048949  0.019580  0.019580     24.000000
  0.058739  0.019580  0.019580     24.000000
  0.068528  0.019580  0.019580     24.000000
  0.078318  0.019580  0.019580     24.000000
  0.088108  0.019580  0.019580     12.000000
  0.029369  0.029369  0.019580     24.000000
  0.039159  0.029369  0.019580     48.000000
  0.048949  0.029369  0.019580     48.000000
  0.058739  0.029369  0.019580     48.000000
  0.068528  0.029369  0.019580     48.000000
  0.078318  0.029369  0.019580     48.000000
  0.088108  0.029369  0.019580     24.000000
  0.039159  0.039159  0.019580     24.000000
  0.048949  0.039159  0.019580     48.000000
  0.058739  0.039159  0.019580     48.000000
  0.068528  0.039159  0.019580     48.000000
  0.078318  0.039159  0.019580     48.000000
  0.088108  0.039159  0.019580     24.000000
  0.048949  0.048949  0.019580     24.000000
  0.058739  0.048949  0.019580     48.000000
  0.068528  0.048949  0.019580     48.000000
  0.078318  0.048949  0.019580     48.000000
  0.088108  0.048949  0.019580     24.000000
  0.058739  0.058739  0.019580     24.000000
  0.068528  0.058739  0.019580     48.000000
  0.078318  0.058739  0.019580     48.000000
  0.088108  0.058739  0.019580     24.000000
  0.068528  0.068528  0.019580     24.000000
  0.078318  0.068528  0.019580     48.000000
  0.088108  0.068528  0.019580     24.000000
  0.078318  0.078318  0.019580     24.000000
  0.088108  0.078318  0.019580     24.000000
  0.088108  0.088108  0.019580      6.000000
  0.029369  0.029369  0.029369      8.000000
  0.039159  0.029369  0.029369     24.000000
  0.048949  0.029369  0.029369     24.000000
  0.058739  0.029369  0.029369     24.000000
  0.068528  0.029369  0.029369     24.000000
  0.078318  0.029369  0.029369     24.000000
  0.088108  0.029369  0.029369     12.000000
  0.039159  0.039159  0.029369     24.000000
  0.048949  0.039159  0.029369     48.000000
  0.058739  0.039159  0.029369     48.000000
  0.068528  0.039159  0.029369     48.000000
  0.078318  0.039159  0.029369     48.000000
  0.088108  0.039159  0.029369     24.000000
  0.048949  0.048949  0.029369     24.000000
  0.058739  0.048949  0.029369     48.000000
  0.068528  0.048949  0.029369     48.000000
  0.078318  0.048949  0.029369     48.000000
  0.088108  0.048949  0.029369     24.000000
  0.058739  0.058739  0.029369     24.000000
  0.068528  0.058739  0.029369     48.000000
  0.078318  0.058739  0.029369     48.000000
  0.088108  0.058739  0.029369     24.000000
  0.068528  0.068528  0.029369     24.000000
  0.078318  0.068528  0.029369     48.000000
  0.088108  0.068528  0.029369     24.000000
  0.078318  0.078318  0.029369     24.000000
  0.088108  0.078318  0.029369     24.000000
  0.088108  0.088108  0.029369      6.000000
  0.039159  0.039159  0.039159      8.000000
  0.048949  0.039159  0.039159     24.000000
  0.058739  0.039159  0.039159     24.000000
  0.068528  0.039159  0.039159     24.000000
  0.078318  0.039159  0.039159     24.000000
  0.088108  0.039159  0.039159     12.000000
  0.048949  0.048949  0.039159     24.000000
  0.058739  0.048949  0.039159     48.000000
  0.068528  0.048949  0.039159     48.000000
  0.078318  0.048949  0.039159     48.000000
  0.088108  0.048949  0.039159     24.000000
  0.058739  0.058739  0.039159     24.000000
  0.068528  0.058739  0.039159     48.000000
  0.078318  0.058739  0.039159     48.000000
  0.088108  0.058739  0.039159     24.000000
  0.068528  0.068528  0.039159     24.000000
  0.078318  0.068528  0.039159     48.000000
  0.088108  0.068528  0.039159     24.000000
  0.078318  0.078318  0.039159     24.000000
  0.088108  0.078318  0.039159     24.000000
  0.088108  0.088108  0.039159      6.000000
  0.048949  0.048949  0.048949      8.000000
  0.058739  0.048949  0.048949     24.000000
  0.068528  0.048949  0.048949     24.000000
  0.078318  0.048949  0.048949     24.000000
  0.088108  0.048949  0.048949     12.000000
  0.058739  0.058739  0.048949     24.000000
  0.068528  0.058739  0.048949     48.000000
  0.078318  0.058739  0.048949     48.000000
  0.088108  0.058739  0.048949     24.000000
  0.068528  0.068528  0.048949     24.000000
  0.078318  0.068528  0.048949     48.000000
  0.088108  0.068528  0.048949     24.000000
  0.078318  0.078318  0.048949     24.000000
  0.088108  0.078318  0.048949     24.000000
  0.088108  0.088108  0.048949      6.000000
  0.058739  0.058739  0.058739      8.000000
  0.068528  0.058739  0.058739     24.000000
  0.078318  0.058739  0.058739     24.000000
  0.088108  0.058739  0.058739     12.000000
  0.068528  0.068528  0.058739     24.000000
  0.078318  0.068528  0.058739     48.000000
  0.088108  0.068528  0.058739     24.000000
  0.078318  0.078318  0.058739     24.000000
  0.088108  0.078318  0.058739     24.000000
  0.088108  0.088108  0.058739      6.000000
  0.068528  0.068528  0.068528      8.000000
  0.078318  0.068528  0.068528     24.000000
  0.088108  0.068528  0.068528     12.000000
  0.078318  0.078318  0.068528     24.000000
  0.088108  0.078318  0.068528     24.000000
  0.088108  0.088108  0.068528      6.000000
  0.078318  0.078318  0.078318      8.000000
  0.088108  0.078318  0.078318     12.000000
  0.088108  0.088108  0.078318      6.000000
  0.088108  0.088108  0.088108      1.000000
 


--------------------------------------------------------------------------------------------------------




 Dimension of arrays:
   k-points           NKPTS =    220   k-points in BZ     NKDIM =    220   number of bands    NBANDS=     68
   number of dos      NEDOS =    301   number of ions     NIONS =      8
   non local maximal  LDIM  =      6   non local SUM 2l+1 LMDIM =     18
   total plane-waves  NPLWV =  13824
   max r-space proj   IRMAX =      1   max aug-charges    IRDMAX=  20549
   dimension x,y,z NGX =    24 NGY =   24 NGZ =   24
   dimension x,y,z NGXF=    48 NGYF=   48 NGZF=   48
   support grid    NGXF=    96 NGYF=   96 NGZF=   96
   ions per type =               8
   NGX,Y,Z   is equivalent  to a cutoff of   7.03,  7.03,  7.03 a.u.
   NGXF,Y,Z  is equivalent  to a cutoff of  14.06, 14.06, 14.06 a.u.

 SYSTEM =  unknown system                          
 POSCAR =  Ge8                                     

 Startparameter for this run:
   NWRITE =      2    write-flag & timer
   PREC   = normal    normal or accurate (medium, high low for compatibility)
   ISTART =      0    job   : 0-new  1-cont  2-samecut
   ICHARG =      2    charge: 1-file 2-atom 10-const
   ISPIN  =      1    spin polarized calculation?
   LNONCOLLINEAR =      F non collinear calculations
   LSORBIT =      F    spin-orbit coupling
   INIWAV =      1    electr: 0-lowe 1-rand  2-diag
   LASPH  =      F    aspherical Exc in radial PAW
 Electronic Relaxation 1
   ENCUT  =  310.3 eV  22.81 Ry    4.78 a.u.   8.15  8.15  8.15*2*pi/ulx,y,z
   ENINI  =  310.3     initial cutoff
   ENAUG  =  531.4 eV  augmentation charge cutoff
   NELM   =     90;   NELMIN=  6; NELMDL=  0     # of ELM steps 
   EDIFF  = 0.1E-07   stopping-criterion for ELM
   LREAL  =      F    real-space projection
   NLSPLINE    = F    spline interpolate recip. space projectors
   LCOMPAT=      F    compatible to vasp.4.4
   GGA_COMPAT  = T    GGA compatible to vasp.4.4-vasp.4.6
   LMAXPAW     = -100 max onsite density
   LMAXMIX     =    2 max onsite mixed and CHGCAR
   VOSKOWN=      0    Vosko Wilk Nusair interpolation
   ROPT   =    0.00000
 Ionic relaxation
   EDIFFG = -.2E-01   stopping-criterion for IOM
   NSW    =    100    number of steps for IOM
   NBLOCK =      1;   KBLOCK =    100    inner block; outer block 
   IBRION =      2    ionic relax: 0-MD 1-quasi-New 2-CG
   NFREE  =      1    steps in history (QN), initial steepest desc. (CG)
   ISIF   =      3    stress and relaxation
   IWAVPR =     11    prediction:  0-non 1-charg 2-wave 3-comb
   ISYM   =      2    0-nonsym 1-usesym 2-fastsym
   LCORR  =      T    Harris-Foulkes like correction to forces

   POTIM  = 0.5000    time-step for ionic-motion
   TEIN   =    0.0    initial temperature
   TEBEG  =    0.0;   TEEND  =   0.0 temperature during run
   SMASS  =  -3.00    Nose mass-parameter (am)
   estimated Nose-frequenzy (Omega)   =  0.10E-29 period in steps = 0.13E+47 mass=  -0.736E-27a.u.
   SCALEE = 1.0000    scale energy and forces
   NPACO  =    256;   APACO  = 10.0  distance and # of slots for P.C.
   PSTRESS=    0.0 pullay stress

  Mass of Ions in am
   POMASS =  72.61
  Ionic Valenz
   ZVAL   =  14.00
  Atomic Wigner-Seitz radii
   RWIGS  =  -1.00
  virtual crystal weights 
   VCA    =   1.00
   NELECT =     112.0000    total number of electrons
   NUPDOWN=      -1.0000    fix difference up-down

 DOS related values:
   EMIN   =  10.00;   EMAX   =-10.00  energy-range for DOS
   EFERMI =   0.00
   ISMEAR =     0;   SIGMA  =   0.05  broadening in eV -4-tet -1-fermi 0-gaus

 Electronic relaxation 2 (details)
   IALGO  =     38    algorithm
   LDIAG  =      T    sub-space diagonalisation (order eigenvalues)
   LSUBROT=      F    optimize rotation matrix (better conditioning)
   TURBO    =      0    0=normal 1=particle mesh
   IRESTART =      0    0=no restart 2=restart with 2 vectors
   NREBOOT  =      0    no. of reboots
   NMIN     =      0    reboot dimension
   EREF     =   0.00    reference energy to select bands
   IMIX   =      4    mixing-type and parameters
     AMIX     =   0.40;   BMIX     =  1.00
     AMIX_MAG =   1.60;   BMIX_MAG =  1.00
     AMIN     =   0.10
     WC   =   100.;   INIMIX=   1;  MIXPRE=   1;  MAXMIX= -45

 Intra band minimization:
   WEIMIN = 0.0010     energy-eigenvalue tresh-hold
   EBREAK =  0.37E-10  absolut break condition
   DEPER  =   0.30     relativ break condition  

   TIME   =   0.40     timestep for ELM

  volume/ion in A,a.u.               =      22.84       154.16
  Fermi-wavevector in a.u.,A,eV,Ry     =   1.390570  2.627796 26.309373  1.933684
  Thomas-Fermi vector in A             =   2.514492

 Write flags
   LWAVE        =      T    write WAVECAR
   LDOWNSAMPLE  =      F    k-point downsampling of WAVECAR
   LCHARG       =      T    write CHGCAR
   LVTOT        =      F    write LOCPOT, total local potential
   LVHAR        =      F    write LOCPOT, Hartree potential only
   LELF         =      F    write electronic localiz. function (ELF)
   LORBIT       =      0    0 simple, 1 ext, 2 COOP (PROOUT), +10 PAW based schemes


 Dipole corrections
   LMONO  =      F    monopole corrections only (constant potential shift)
   LDIPOL =      F    correct potential (dipole corrections)
   IDIPOL =      0    1-x, 2-y, 3-z, 4-all directions 
   EPSILON=  1.0000000 bulk dielectric constant

 Exchange correlation treatment:
   GGA     =    --    GGA type
   LEXCH   =     8    internal setting for exchange type
   LIBXC   =     F    Libxc                    
   VOSKOWN =     0    Vosko Wilk Nusair interpolation
   LHFCALC =     F    Hartree Fock is set to
   LHFONE  =     F    Hartree Fock one center treatment
   AEXX    =    0.0000 exact exchange contribution

 Linear response parameters
   LEPSILON=     F    determine dielectric tensor
   LRPA    =     F    only Hartree local field effects (RPA)
   LNABLA  =     F    use nabla operator in PAW spheres
   LVEL    =     F    velocity operator in full k-point grid
   CSHIFT  =0.1000    complex shift for real part using Kramers Kronig
   OMEGAMAX=  -1.0    maximum frequency
   DEG_THRESHOLD= 0.2000000E-02 threshold for treating states as degnerate
   RTIME   =   -0.100 relaxation time in fs
  (WPLASMAI=    0.000 imaginary part of plasma frequency in eV, 0.658/RTIME)
   DFIELD  = 0.0000000 0.0000000 0.0000000 field for delta impulse in time

  Optional k-point grid parameters
   LKPOINTS_OPT  =     F    use optional k-point grid
   KPOINTS_OPT_MODE=     1    mode for optional k-point grid

 Orbital magnetization related:
   ORBITALMAG=     F  switch on orbital magnetization
   LCHIMAG   =     F  perturbation theory with respect to B field
   DQ        =  0.001000  dq finite difference perturbation B field
   LLRAUG    =     F  two centre corrections for induced B field



--------------------------------------------------------------------------------------------------------


 conjugate gradient relaxation of ions
 charge density and potential will be updated during run
 non-spin polarized calculation
 Variant of blocked Davidson
 Davidson routine will perform the subspace rotation
 perform sub-space diagonalisation
    after iterative eigenvector-optimisation
 modified Broyden-mixing scheme, WC =      100.0
 initial mixing is a Kerker type mixing with AMIX =  0.4000 and BMIX =      1.0000
 Hartree-type preconditioning will be used
 using additional bands           12
 reciprocal scheme for non local part
 use partial core corrections
 calculate Harris-corrections to forces   (improved forces if not selfconsistent)
 use gradient corrections 
 use of overlap-Matrix (Vanderbilt PP)
 Gauss-broadening in eV      SIGMA  =   0.05


--------------------------------------------------------------------------------------------------------


  energy-cutoff  :      310.29
  volume of cell :      182.75
      direct lattice vectors                 reciprocal lattice vectors
     5.674854215  0.000000000  0.000000000     0.176215981  0.000000000 -0.000000000
    -0.000000000  5.674854215  0.000000000     0.000000000  0.176215981  0.000000000
     0.000000000  0.000000000  5.674854215    -0.000000000 -0.000000000  0.176215981

  length of vectors
     5.674854215  5.674854215  5.674854215     0.176215981  0.176215981  0.176215981



 k-points in units of 2pi/SCALE and weight: K-Spacing Value to Generate K-Mesh: 0.01
   0.00000000  0.00000000  0.00000000       0.000
   0.00978978  0.00000000  0.00000000       0.001
   0.01957955  0.00000000  0.00000000       0.001
   0.02936933  0.00000000  0.00000000       0.001
   0.03915911  0.00000000  0.00000000       0.001
   0.04894888  0.00000000  0.00000000       0.001
   0.05873866  0.00000000  0.00000000       0.001
   0.06852844  0.00000000  0.00000000       0.001
   0.07831821  0.00000000  0.00000000       0.001
   0.08810799  0.00000000  0.00000000       0.001
   0.00978978  0.00978978  0.00000000       0.002
   0.01957955  0.00978978  0.00000000       0.004
   0.02936933  0.00978978  0.00000000       0.004
   0.03915911  0.00978978  0.00000000       0.004
   0.04894888  0.00978978  0.00000000       0.004
   0.05873866  0.00978978  0.00000000       0.004
   0.06852844  0.00978978  0.00000000       0.004
   0.07831821  0.00978978  0.00000000       0.004
   0.08810799  0.00978978  0.00000000       0.002
   0.01957955  0.01957955  0.00000000       0.002
   0.02936933  0.01957955  0.00000000       0.004
   0.03915911  0.01957955  0.00000000       0.004
   0.04894888  0.01957955  0.00000000       0.004
   0.05873866  0.01957955  0.00000000       0.004
   0.06852844  0.01957955  0.00000000       0.004
   0.07831821  0.01957955  0.00000000       0.004
   0.08810799  0.01957955  0.00000000       0.002
   0.02936933  0.02936933  0.00000000       0.002
   0.03915911  0.02936933  0.00000000       0.004
   0.04894888  0.02936933  0.00000000       0.004
   0.05873866  0.02936933  0.00000000       0.004
   0.06852844  0.02936933  0.00000000       0.004
   0.07831821  0.02936933  0.00000000       0.004
   0.08810799  0.02936933  0.00000000       0.002
   0.03915911  0.03915911  0.00000000       0.002
   0.04894888  0.03915911  0.00000000       0.004
   0.05873866  0.03915911  0.00000000       0.004
   0.06852844  0.03915911  0.00000000       0.004
   0.07831821  0.03915911  0.00000000       0.004
   0.08810799  0.03915911  0.00000000       0.002
   0.04894888  0.04894888  0.00000000       0.002
   0.05873866  0.04894888  0.00000000       0.004
   0.06852844  0.04894888  0.00000000       0.004
   0.07831821  0.04894888  0.00000000       0.004
   0.08810799  0.04894888  0.00000000       0.002
   0.05873866  0.05873866  0.00000000       0.002
   0.06852844  0.05873866  0.00000000       0.004
   0.07831821  0.05873866  0.00000000       0.004
   0.08810799  0.05873866  0.00000000       0.002
   0.06852844  0.06852844  0.00000000       0.002
   0.07831821  0.06852844  0.00000000       0.004
   0.08810799  0.06852844  0.00000000       0.002
   0.07831821  0.07831821  0.00000000       0.002
   0.08810799  0.07831821  0.00000000       0.002
   0.08810799  0.08810799  0.00000000       0.001
   0.00978978  0.00978978  0.00978978       0.001
   0.01957955  0.00978978  0.00978978       0.004
   0.02936933  0.00978978  0.00978978       0.004
   0.03915911  0.00978978  0.00978978       0.004
   0.04894888  0.00978978  0.00978978       0.004
   0.05873866  0.00978978  0.00978978       0.004
   0.06852844  0.00978978  0.00978978       0.004
   0.07831821  0.00978978  0.00978978       0.004
   0.08810799  0.00978978  0.00978978       0.002
   0.01957955  0.01957955  0.00978978       0.004
   0.02936933  0.01957955  0.00978978       0.008
   0.03915911  0.01957955  0.00978978       0.008
   0.04894888  0.01957955  0.00978978       0.008
   0.05873866  0.01957955  0.00978978       0.008
   0.06852844  0.01957955  0.00978978       0.008
   0.07831821  0.01957955  0.00978978       0.008
   0.08810799  0.01957955  0.00978978       0.004
   0.02936933  0.02936933  0.00978978       0.004
   0.03915911  0.02936933  0.00978978       0.008
   0.04894888  0.02936933  0.00978978       0.008
   0.05873866  0.02936933  0.00978978       0.008
   0.06852844  0.02936933  0.00978978       0.008
   0.07831821  0.02936933  0.00978978       0.008
   0.08810799  0.02936933  0.00978978       0.004
   0.03915911  0.03915911  0.00978978       0.004
   0.04894888  0.03915911  0.00978978       0.008
   0.05873866  0.03915911  0.00978978       0.008
   0.06852844  0.03915911  0.00978978       0.008
   0.07831821  0.03915911  0.00978978       0.008
   0.08810799  0.03915911  0.00978978       0.004
   0.04894888  0.04894888  0.00978978       0.004
   0.05873866  0.04894888  0.00978978       0.008
   0.06852844  0.04894888  0.00978978       0.008
   0.07831821  0.04894888  0.00978978       0.008
   0.08810799  0.04894888  0.00978978       0.004
   0.05873866  0.05873866  0.00978978       0.004
   0.06852844  0.05873866  0.00978978       0.008
   0.07831821  0.05873866  0.00978978       0.008
   0.08810799  0.05873866  0.00978978       0.004
   0.06852844  0.06852844  0.00978978       0.004
   0.07831821  0.06852844  0.00978978       0.008
   0.08810799  0.06852844  0.00978978       0.004
   0.07831821  0.07831821  0.00978978       0.004
   0.08810799  0.07831821  0.00978978       0.004
   0.08810799  0.08810799  0.00978978       0.001
   0.01957955  0.01957955  0.01957955       0.001
   0.02936933  0.01957955  0.01957955       0.004
   0.03915911  0.01957955  0.01957955       0.004
   0.04894888  0.01957955  0.01957955       0.004
   0.05873866  0.01957955  0.01957955       0.004
   0.06852844  0.01957955  0.01957955       0.004
   0.07831821  0.01957955  0.01957955       0.004
   0.08810799  0.01957955  0.01957955       0.002
   0.02936933  0.02936933  0.01957955       0.004
   0.03915911  0.02936933  0.01957955       0.008
   0.04894888  0.02936933  0.01957955       0.008
   0.05873866  0.02936933  0.01957955       0.008
   0.06852844  0.02936933  0.01957955       0.008
   0.07831821  0.02936933  0.01957955       0.008
   0.08810799  0.02936933  0.01957955       0.004
   0.03915911  0.03915911  0.01957955       0.004
   0.04894888  0.03915911  0.01957955       0.008
   0.05873866  0.03915911  0.01957955       0.008
   0.06852844  0.03915911  0.01957955       0.008
   0.07831821  0.03915911  0.01957955       0.008
   0.08810799  0.03915911  0.01957955       0.004
   0.04894888  0.04894888  0.01957955       0.004
   0.05873866  0.04894888  0.01957955       0.008
   0.06852844  0.04894888  0.01957955       0.008
   0.07831821  0.04894888  0.01957955       0.008
   0.08810799  0.04894888  0.01957955       0.004
   0.05873866  0.05873866  0.01957955       0.004
   0.06852844  0.05873866  0.01957955       0.008
   0.07831821  0.05873866  0.01957955       0.008
   0.08810799  0.05873866  0.01957955       0.004
   0.06852844  0.06852844  0.01957955       0.004
   0.07831821  0.06852844  0.01957955       0.008
   0.08810799  0.06852844  0.01957955       0.004
   0.07831821  0.07831821  0.01957955       0.004
   0.08810799  0.07831821  0.01957955       0.004
   0.08810799  0.08810799  0.01957955       0.001
   0.02936933  0.02936933  0.02936933       0.001
   0.03915911  0.02936933  0.02936933       0.004
   0.04894888  0.02936933  0.02936933       0.004
   0.05873866  0.02936933  0.02936933       0.004
   0.06852844  0.02936933  0.02936933       0.004
   0.07831821  0.02936933  0.02936933       0.004
   0.08810799  0.02936933  0.02936933       0.002
   0.03915911  0.03915911  0.02936933       0.004
   0.04894888  0.03915911  0.02936933       0.008
   0.05873866  0.03915911  0.02936933       0.008
   0.06852844  0.03915911  0.02936933       0.008
   0.07831821  0.03915911  0.02936933       0.008
   0.08810799  0.03915911  0.02936933       0.004
   0.04894888  0.04894888  0.02936933       0.004
   0.05873866  0.04894888  0.02936933       0.008
   0.06852844  0.04894888  0.02936933       0.008
   0.07831821  0.04894888  0.02936933       0.008
   0.08810799  0.04894888  0.02936933       0.004
   0.05873866  0.05873866  0.02936933       0.004
   0.06852844  0.05873866  0.02936933       0.008
   0.07831821  0.05873866  0.02936933       0.008
   0.08810799  0.05873866  0.02936933       0.004
   0.06852844  0.06852844  0.02936933       0.004
   0.07831821  0.06852844  0.02936933       0.008
   0.08810799  0.06852844  0.02936933       0.004
   0.07831821  0.07831821  0.02936933       0.004
   0.08810799  0.07831821  0.02936933       0.004
   0.08810799  0.08810799  0.02936933       0.001
   0.03915911  0.03915911  0.03915911       0.001
   0.04894888  0.03915911  0.03915911       0.004
   0.05873866  0.03915911  0.03915911       0.004
   0.06852844  0.03915911  0.03915911       0.004
   0.07831821  0.03915911  0.03915911       0.004
   0.08810799  0.03915911  0.03915911       0.002
   0.04894888  0.04894888  0.03915911       0.004
   0.05873866  0.04894888  0.03915911       0.008
   0.06852844  0.04894888  0.03915911       0.008
   0.07831821  0.04894888  0.03915911       0.008
   0.08810799  0.04894888  0.03915911       0.004
   0.05873866  0.05873866  0.03915911       0.004
   0.06852844  0.05873866  0.03915911       0.008
   0.07831821  0.05873866  0.03915911       0.008
   0.08810799  0.05873866  0.03915911       0.004
   0.06852844  0.06852844  0.03915911       0.004
   0.07831821  0.06852844  0.03915911       0.008
   0.08810799  0.06852844  0.03915911       0.004
   0.07831821  0.07831821  0.03915911       0.004
   0.08810799  0.07831821  0.03915911       0.004
   0.08810799  0.08810799  0.03915911       0.001
   0.04894888  0.04894888  0.04894888       0.001
   0.05873866  0.04894888  0.04894888       0.004
   0.06852844  0.04894888  0.04894888       0.004
   0.07831821  0.04894888  0.04894888       0.004
   0.08810799  0.04894888  0.04894888       0.002
   0.05873866  0.05873866  0.04894888       0.004
   0.06852844  0.05873866  0.04894888       0.008
   0.07831821  0.05873866  0.04894888       0.008
   0.08810799  0.05873866  0.04894888       0.004
   0.06852844  0.06852844  0.04894888       0.004
   0.07831821  0.06852844  0.04894888       0.008
   0.08810799  0.06852844  0.04894888       0.004
   0.07831821  0.07831821  0.04894888       0.004
   0.08810799  0.07831821  0.04894888       0.004
   0.08810799  0.08810799  0.04894888       0.001
   0.05873866  0.05873866  0.05873866       0.001
   0.06852844  0.05873866  0.05873866       0.004
   0.07831821  0.05873866  0.05873866       0.004
   0.08810799  0.05873866  0.05873866       0.002
   0.06852844  0.06852844  0.05873866       0.004
   0.07831821  0.06852844  0.05873866       0.008
   0.08810799  0.06852844  0.05873866       0.004
   0.07831821  0.07831821  0.05873866       0.004
   0.08810799  0.07831821  0.05873866       0.004
   0.08810799  0.08810799  0.05873866       0.001
   0.06852844  0.06852844  0.06852844       0.001
   0.07831821  0.06852844  0.06852844       0.004
   0.08810799  0.06852844  0.06852844       0.002
   0.07831821  0.07831821  0.06852844       0.004
   0.08810799  0.07831821  0.06852844       0.004
   0.08810799  0.08810799  0.06852844       0.001
   0.07831821  0.07831821  0.07831821       0.001
   0.08810799  0.07831821  0.07831821       0.002
   0.08810799  0.08810799  0.07831821       0.001
   0.08810799  0.08810799  0.08810799       0.000

 k-points in reciprocal lattice and weights: K-Spacing Value to Generate K-Mesh: 0.01
   0.00000000  0.00000000  0.00000000       0.000
   0.05555556  0.00000000  0.00000000       0.001
   0.11111111  0.00000000  0.00000000       0.001
   0.16666667  0.00000000  0.00000000       0.001
   0.22222222  0.00000000  0.00000000       0.001
   0.27777778  0.00000000  0.00000000       0.001
   0.33333333  0.00000000  0.00000000       0.001
   0.38888889  0.00000000  0.00000000       0.001
   0.44444444  0.00000000  0.00000000       0.001
   0.50000000  0.00000000  0.00000000       0.001
   0.05555556  0.05555556  0.00000000       0.002
   0.11111111  0.05555556  0.00000000       0.004
   0.16666667  0.05555556  0.00000000       0.004
   0.22222222  0.05555556  0.00000000       0.004
   0.27777778  0.05555556  0.00000000       0.004
   0.33333333  0.05555556  0.00000000       0.004
   0.38888889  0.05555556  0.00000000       0.004
   0.44444444  0.05555556  0.00000000       0.004
   0.50000000  0.05555556  0.00000000       0.002
   0.11111111  0.11111111  0.00000000       0.002
   0.16666667  0.11111111  0.00000000       0.004
   0.22222222  0.11111111  0.00000000       0.004
   0.27777778  0.11111111  0.00000000       0.004
   0.33333333  0.11111111  0.00000000       0.004
   0.38888889  0.11111111  0.00000000       0.004
   0.44444444  0.11111111  0.00000000       0.004
   0.50000000  0.11111111  0.00000000       0.002
   0.16666667  0.16666667  0.00000000       0.002
   0.22222222  0.16666667  0.00000000       0.004
   0.27777778  0.16666667  0.00000000       0.004
   0.33333333  0.16666667  0.00000000       0.004
   0.38888889  0.16666667  0.00000000       0.004
   0.44444444  0.16666667  0.00000000       0.004
   0.50000000  0.16666667  0.00000000       0.002
   0.22222222  0.22222222  0.00000000       0.002
   0.27777778  0.22222222  0.00000000       0.004
   0.33333333  0.22222222  0.00000000       0.004
   0.38888889  0.22222222  0.00000000       0.004
   0.44444444  0.22222222  0.00000000       0.004
   0.50000000  0.22222222  0.00000000       0.002
   0.27777778  0.27777778  0.00000000       0.002
   0.33333333  0.27777778  0.00000000       0.004
   0.38888889  0.27777778  0.00000000       0.004
   0.44444444  0.27777778  0.00000000       0.004
   0.50000000  0.27777778  0.00000000       0.002
   0.33333333  0.33333333  0.00000000       0.002
   0.38888889  0.33333333  0.00000000       0.004
   0.44444444  0.33333333  0.00000000       0.004
   0.50000000  0.33333333  0.00000000       0.002
   0.38888889  0.38888889  0.00000000       0.002
   0.44444444  0.38888889  0.00000000       0.004
   0.50000000  0.38888889  0.00000000       0.002
   0.44444444  0.44444444  0.00000000       0.002
   0.50000000  0.44444444  0.00000000       0.002
   0.50000000  0.50000000  0.00000000       0.001
   0.05555556  0.05555556  0.05555556       0.001
   0.11111111  0.05555556  0.05555556       0.004
   0.16666667  0.05555556  0.05555556       0.004
   0.22222222  0.05555556  0.05555556       0.004
   0.27777778  0.05555556  0.05555556       0.004
   0.33333333  0.05555556  0.05555556       0.004
   0.38888889  0.05555556  0.05555556       0.004
   0.44444444  0.05555556  0.05555556       0.004
   0.50000000  0.05555556  0.05555556       0.002
   0.11111111  0.11111111  0.05555556       0.004
   0.16666667  0.11111111  0.05555556       0.008
   0.22222222  0.11111111  0.05555556       0.008
   0.27777778  0.11111111  0.05555556       0.008
   0.33333333  0.11111111  0.05555556       0.008
   0.38888889  0.11111111  0.05555556       0.008
   0.44444444  0.11111111  0.05555556       0.008
   0.50000000  0.11111111  0.05555556       0.004
   0.16666667  0.16666667  0.05555556       0.004
   0.22222222  0.16666667  0.05555556       0.008
   0.27777778  0.16666667  0.05555556       0.008
   0.33333333  0.16666667  0.05555556       0.008
   0.38888889  0.16666667  0.05555556       0.008
   0.44444444  0.16666667  0.05555556       0.008
   0.50000000  0.16666667  0.05555556       0.004
   0.22222222  0.22222222  0.05555556       0.004
   0.27777778  0.22222222  0.05555556       0.008
   0.33333333  0.22222222  0.05555556       0.008
   0.38888889  0.22222222  0.05555556       0.008
   0.44444444  0.22222222  0.05555556       0.008
   0.50000000  0.22222222  0.05555556       0.004
   0.27777778  0.27777778  0.05555556       0.004
   0.33333333  0.27777778  0.05555556       0.008
   0.38888889  0.27777778  0.05555556       0.008
   0.44444444  0.27777778  0.05555556       0.008
   0.50000000  0.27777778  0.05555556       0.004
   0.33333333  0.33333333  0.05555556       0.004
   0.38888889  0.33333333  0.05555556       0.008
   0.44444444  0.33333333  0.05555556       0.008
   0.50000000  0.33333333  0.05555556       0.004
   0.38888889  0.38888889  0.05555556       0.004
   0.44444444  0.38888889  0.05555556       0.008
   0.50000000  0.38888889  0.05555556       0.004
   0.44444444  0.44444444  0.05555556       0.004
   0.50000000  0.44444444  0.05555556       0.004
   0.50000000  0.50000000  0.05555556       0.001
   0.11111111  0.11111111  0.11111111       0.001
   0.16666667  0.11111111  0.11111111       0.004
   0.22222222  0.11111111  0.11111111       0.004
   0.27777778  0.11111111  0.11111111       0.004
   0.33333333  0.11111111  0.11111111       0.004
   0.38888889  0.11111111  0.11111111       0.004
   0.44444444  0.11111111  0.11111111       0.004
   0.50000000  0.11111111  0.11111111       0.002
   0.16666667  0.16666667  0.11111111       0.004
   0.22222222  0.16666667  0.11111111       0.008
   0.27777778  0.16666667  0.11111111       0.008
   0.33333333  0.16666667  0.11111111       0.008
   0.38888889  0.16666667  0.11111111       0.008
   0.44444444  0.16666667  0.11111111       0.008
   0.50000000  0.16666667  0.11111111       0.004
   0.22222222  0.22222222  0.11111111       0.004
   0.27777778  0.22222222  0.11111111       0.008
   0.33333333  0.22222222  0.11111111       0.008
   0.38888889  0.22222222  0.11111111       0.008
   0.44444444  0.22222222  0.11111111       0.008
   0.50000000  0.22222222  0.11111111       0.004
   0.27777778  0.27777778  0.11111111       0.004
   0.33333333  0.27777778  0.11111111       0.008
   0.38888889  0.27777778  0.11111111       0.008
   0.44444444  0.27777778  0.11111111       0.008
   0.50000000  0.27777778  0.11111111       0.004
   0.33333333  0.33333333  0.11111111       0.004
   0.38888889  0.33333333  0.11111111       0.008
   0.44444444  0.33333333  0.11111111       0.008
   0.50000000  0.33333333  0.11111111       0.004
   0.38888889  0.38888889  0.11111111       0.004
   0.44444444  0.38888889  0.11111111       0.008
   0.50000000  0.38888889  0.11111111       0.004
   0.44444444  0.44444444  0.11111111       0.004
   0.50000000  0.44444444  0.11111111       0.004
   0.50000000  0.50000000  0.11111111       0.001
   0.16666667  0.16666667  0.16666667       0.001
   0.22222222  0.16666667  0.16666667       0.004
   0.27777778  0.16666667  0.16666667       0.004
   0.33333333  0.16666667  0.16666667       0.004
   0.38888889  0.16666667  0.16666667       0.004
   0.44444444  0.16666667  0.16666667       0.004
   0.50000000  0.16666667  0.16666667       0.002
   0.22222222  0.22222222  0.16666667       0.004
   0.27777778  0.22222222  0.16666667       0.008
   0.33333333  0.22222222  0.16666667       0.008
   0.38888889  0.22222222  0.16666667       0.008
   0.44444444  0.22222222  0.16666667       0.008
   0.50000000  0.22222222  0.16666667       0.004
   0.27777778  0.27777778  0.16666667       0.004
   0.33333333  0.27777778  0.16666667       0.008
   0.38888889  0.27777778  0.16666667       0.008
   0.44444444  0.27777778  0.16666667       0.008
   0.50000000  0.27777778  0.16666667       0.004
   0.33333333  0.33333333  0.16666667       0.004
   0.38888889  0.33333333  0.16666667       0.008
   0.44444444  0.33333333  0.16666667       0.008
   0.50000000  0.33333333  0.16666667       0.004
   0.38888889  0.38888889  0.16666667       0.004
   0.44444444  0.38888889  0.16666667       0.008
   0.50000000  0.38888889  0.16666667       0.004
   0.44444444  0.44444444  0.16666667       0.004
   0.50000000  0.44444444  0.16666667       0.004
   0.50000000  0.50000000  0.16666667       0.001
   0.22222222  0.22222222  0.22222222       0.001
   0.27777778  0.22222222  0.22222222       0.004
   0.33333333  0.22222222  0.22222222       0.004
   0.38888889  0.22222222  0.22222222       0.004
   0.44444444  0.22222222  0.22222222       0.004
   0.50000000  0.22222222  0.22222222       0.002
   0.27777778  0.27777778  0.22222222       0.004
   0.33333333  0.27777778  0.22222222       0.008
   0.38888889  0.27777778  0.22222222       0.008
   0.44444444  0.27777778  0.22222222       0.008
   0.50000000  0.27777778  0.22222222       0.004
   0.33333333  0.33333333  0.22222222       0.004
   0.38888889  0.33333333  0.22222222       0.008
   0.44444444  0.33333333  0.22222222       0.008
   0.50000000  0.33333333  0.22222222       0.004
   0.38888889  0.38888889  0.22222222       0.004
   0.44444444  0.38888889  0.22222222       0.008
   0.50000000  0.38888889  0.22222222       0.004
   0.44444444  0.44444444  0.22222222       0.004
   0.50000000  0.44444444  0.22222222       0.004
   0.50000000  0.50000000  0.22222222       0.001
   0.27777778  0.27777778  0.27777778       0.001
   0.33333333  0.27777778  0.27777778       0.004
   0.38888889  0.27777778  0.27777778       0.004
   0.44444444  0.27777778  0.27777778       0.004
   0.50000000  0.27777778  0.27777778       0.002
   0.33333333  0.33333333  0.27777778       0.004
   0.38888889  0.33333333  0.27777778       0.008
   0.44444444  0.33333333  0.27777778       0.008
   0.50000000  0.33333333  0.27777778       0.004
   0.38888889  0.38888889  0.27777778       0.004
   0.44444444  0.38888889  0.27777778       0.008
   0.50000000  0.38888889  0.27777778       0.004
   0.44444444  0.44444444  0.27777778       0.004
   0.50000000  0.44444444  0.27777778       0.004
   0.50000000  0.50000000  0.27777778       0.001
   0.33333333  0.33333333  0.33333333       0.001
   0.38888889  0.33333333  0.33333333       0.004
   0.44444444  0.33333333  0.33333333       0.004
   0.50000000  0.33333333  0.33333333       0.002
   0.38888889  0.38888889  0.33333333       0.004
   0.44444444  0.38888889  0.33333333       0.008
   0.50000000  0.38888889  0.33333333       0.004
   0.44444444  0.44444444  0.33333333       0.004
   0.50000000  0.44444444  0.33333333       0.004
   0.50000000  0.50000000  0.33333333       0.001
   0.38888889  0.38888889  0.38888889       0.001
   0.44444444  0.38888889  0.38888889       0.004
   0.50000000  0.38888889  0.38888889       0.002
   0.44444444  0.44444444  0.38888889       0.004
   0.50000000  0.44444444  0.38888889       0.004
   0.50000000  0.50000000  0.38888889       0.001
   0.44444444  0.44444444  0.44444444       0.001
   0.50000000  0.44444444  0.44444444       0.002
   0.50000000  0.50000000  0.44444444       0.001
   0.50000000  0.50000000  0.50000000       0.000

 position of ions in fractional coordinates (direct lattice) 
   0.00000000  0.00000000  0.50000000
   0.25000000  0.25000000  0.75000000
   0.00000000  0.50000000  0.00000000
   0.25000000  0.75000000  0.25000000
   0.50000000  0.00000000  0.00000000
   0.75000000  0.25000000  0.25000000
   0.50000000  0.50000000  0.50000000
   0.75000000  0.75000000  0.75000000

 position of ions in cartesian coordinates  (Angst):
   0.00000000  0.00000000  2.83742711
   1.41871355  1.41871355  4.25614066
  -0.00000000  2.83742711  0.00000000
   1.41871355  4.25614066  1.41871355
   2.83742711  0.00000000  0.00000000
   4.25614066  1.41871355  1.41871355
   2.83742711  2.83742711  2.83742711
   4.25614066  4.25614066  4.25614066



--------------------------------------------------------------------------------------------------------


 k-point   1 :   0.0000 0.0000 0.0000  plane waves:    2301
 k-point   2 :   0.0556 0.0000 0.0000  plane waves:    2273
 k-point   3 :   0.1111 0.0000 0.0000  plane waves:    2277
 k-point   4 :   0.1667 0.0000 0.0000  plane waves:    2272
 k-point   5 :   0.2222 0.0000 0.0000  plane waves:    2268
 k-point   6 :   0.2778 0.0000 0.0000  plane waves:    2268
 k-point   7 :   0.3333 0.0000 0.0000  plane waves:    2260
 k-point   8 :   0.3889 0.0000 0.0000  plane waves:    2272
 k-point   9 :   0.4444 0.0000 0.0000  plane waves:    2260
 k-point  10 :   0.5000 0.0000 0.0000  plane waves:    2272
 k-point  11 :   0.0556 0.0556 0.0000  plane waves:    2277
 k-point  12 :   0.1111 0.0556 0.0000  plane waves:    2262
 k-point  13 :   0.1667 0.0556 0.0000  plane waves:    2259
 k-point  14 :   0.2222 0.0556 0.0000  plane waves:    2266
 k-point  15 :   0.2778 0.0556 0.0000  plane waves:    2274
 k-point  16 :   0.3333 0.0556 0.0000  plane waves:    2270
 k-point  17 :   0.3889 0.0556 0.0000  plane waves:    2274
 k-point  18 :   0.4444 0.0556 0.0000  plane waves:    2274
 k-point  19 :   0.5000 0.0556 0.0000  plane waves:    2268
 k-point  20 :   0.1111 0.1111 0.0000  plane waves:    2257
 k-point  21 :   0.1667 0.1111 0.0000  plane waves:    2260
 k-point  22 :   0.2222 0.1111 0.0000  plane waves:    2267
 k-point  23 :   0.2778 0.1111 0.0000  plane waves:    2271
 k-point  24 :   0.3333 0.1111 0.0000  plane waves:    2271
 k-point  25 :   0.3889 0.1111 0.0000  plane waves:    2267
 k-point  26 :   0.4444 0.1111 0.0000  plane waves:    2278
 k-point  27 :   0.5000 0.1111 0.0000  plane waves:    2274
 k-point  28 :   0.1667 0.1667 0.0000  plane waves:    2277
 k-point  29 :   0.2222 0.1667 0.0000  plane waves:    2272
 k-point  30 :   0.2778 0.1667 0.0000  plane waves:    2265
 k-point  31 :   0.3333 0.1667 0.0000  plane waves:    2260
 k-point  32 :   0.3889 0.1667 0.0000  plane waves:    2259
 k-point  33 :   0.4444 0.1667 0.0000  plane waves:    2263
 k-point  34 :   0.5000 0.1667 0.0000  plane waves:    2272
 k-point  35 :   0.2222 0.2222 0.0000  plane waves:    2273
 k-point  36 :   0.2778 0.2222 0.0000  plane waves:    2271
 k-point  37 :   0.3333 0.2222 0.0000  plane waves:    2263
 k-point  38 :   0.3889 0.2222 0.0000  plane waves:    2266
 k-point  39 :   0.4444 0.2222 0.0000  plane waves:    2258
 k-point  40 :   0.5000 0.2222 0.0000  plane waves:    2264
 k-point  41 :   0.2778 0.2778 0.0000  plane waves:    2266
 k-point  42 :   0.3333 0.2778 0.0000  plane waves:    2268
 k-point  43 :   0.3889 0.2778 0.0000  plane waves:    2263
 k-point  44 :   0.4444 0.2778 0.0000  plane waves:    2263
 k-point  45 :   0.5000 0.2778 0.0000  plane waves:    2258
 k-point  46 :   0.3333 0.3333 0.0000  plane waves:    2268
 k-point  47 :   0.3889 0.3333 0.0000  plane waves:    2264
 k-point  48 :   0.4444 0.3333 0.0000  plane waves:    2260
 k-point  49 :   0.5000 0.3333 0.0000  plane waves:    2266
 k-point  50 :   0.3889 0.3889 0.0000  plane waves:    2266
 k-point  51 :   0.4444 0.3889 0.0000  plane waves:    2260
 k-point  52 :   0.5000 0.3889 0.0000  plane waves:    2260
 k-point  53 :   0.4444 0.4444 0.0000  plane waves:    2254
 k-point  54 :   0.5000 0.4444 0.0000  plane waves:    2248
 k-point  55 :   0.5000 0.5000 0.0000  plane waves:    2216
 k-point  56 :   0.0556 0.0556 0.0556  plane waves:    2262
 k-point  57 :   0.1111 0.0556 0.0556  plane waves:    2257
 k-point  58 :   0.1667 0.0556 0.0556  plane waves:    2256
 k-point  59 :   0.2222 0.0556 0.0556  plane waves:    2270
 k-point  60 :   0.2778 0.0556 0.0556  plane waves:    2272
 k-point  61 :   0.3333 0.0556 0.0556  plane waves:    2267
 k-point  62 :   0.3889 0.0556 0.0556  plane waves:    2270
 k-point  63 :   0.4444 0.0556 0.0556  plane waves:    2276
 k-point  64 :   0.5000 0.0556 0.0556  plane waves:    2264
 k-point  65 :   0.1111 0.1111 0.0556  plane waves:    2255
 k-point  66 :   0.1667 0.1111 0.0556  plane waves:    2263
 k-point  67 :   0.2222 0.1111 0.0556  plane waves:    2271
 k-point  68 :   0.2778 0.1111 0.0556  plane waves:    2268
 k-point  69 :   0.3333 0.1111 0.0556  plane waves:    2267
 k-point  70 :   0.3889 0.1111 0.0556  plane waves:    2267
 k-point  71 :   0.4444 0.1111 0.0556  plane waves:    2266
 k-point  72 :   0.5000 0.1111 0.0556  plane waves:    2270
 k-point  73 :   0.1667 0.1667 0.0556  plane waves:    2268
 k-point  74 :   0.2222 0.1667 0.0556  plane waves:    2278
 k-point  75 :   0.2778 0.1667 0.0556  plane waves:    2270
 k-point  76 :   0.3333 0.1667 0.0556  plane waves:    2265
 k-point  77 :   0.3889 0.1667 0.0556  plane waves:    2264
 k-point  78 :   0.4444 0.1667 0.0556  plane waves:    2263
 k-point  79 :   0.5000 0.1667 0.0556  plane waves:    2266
 k-point  80 :   0.2222 0.2222 0.0556  plane waves:    2270
 k-point  81 :   0.2778 0.2222 0.0556  plane waves:    2264
 k-point  82 :   0.3333 0.2222 0.0556  plane waves:    2265
 k-point  83 :   0.3889 0.2222 0.0556  plane waves:    2264
 k-point  84 :   0.4444 0.2222 0.0556  plane waves:    2259
 k-point  85 :   0.5000 0.2222 0.0556  plane waves:    2264
 k-point  86 :   0.2778 0.2778 0.0556  plane waves:    2266
 k-point  87 :   0.3333 0.2778 0.0556  plane waves:    2267
 k-point  88 :   0.3889 0.2778 0.0556  plane waves:    2258
 k-point  89 :   0.4444 0.2778 0.0556  plane waves:    2264
 k-point  90 :   0.5000 0.2778 0.0556  plane waves:    2264
 k-point  91 :   0.3333 0.3333 0.0556  plane waves:    2266
 k-point  92 :   0.3889 0.3333 0.0556  plane waves:    2263
 k-point  93 :   0.4444 0.3333 0.0556  plane waves:    2268
 k-point  94 :   0.5000 0.3333 0.0556  plane waves:    2268
 k-point  95 :   0.3889 0.3889 0.0556  plane waves:    2264
 k-point  96 :   0.4444 0.3889 0.0556  plane waves:    2256
 k-point  97 :   0.5000 0.3889 0.0556  plane waves:    2264
 k-point  98 :   0.4444 0.4444 0.0556  plane waves:    2257
 k-point  99 :   0.5000 0.4444 0.0556  plane waves:    2254
 k-point 100 :   0.5000 0.5000 0.0556  plane waves:    2256
 k-point 101 :   0.1111 0.1111 0.1111  plane waves:    2247
 k-point 102 :   0.1667 0.1111 0.1111  plane waves:    2269
 k-point 103 :   0.2222 0.1111 0.1111  plane waves:    2281
 k-point 104 :   0.2778 0.1111 0.1111  plane waves:    2270
 k-point 105 :   0.3333 0.1111 0.1111  plane waves:    2267
 k-point 106 :   0.3889 0.1111 0.1111  plane waves:    2265
 k-point 107 :   0.4444 0.1111 0.1111  plane waves:    2260
 k-point 108 :   0.5000 0.1111 0.1111  plane waves:    2264
 k-point 109 :   0.1667 0.1667 0.1111  plane waves:    2269
 k-point 110 :   0.2222 0.1667 0.1111  plane waves:    2278
 k-point 111 :   0.2778 0.1667 0.1111  plane waves:    2266
 k-point 112 :   0.3333 0.1667 0.1111  plane waves:    2262
 k-point 113 :   0.3889 0.1667 0.1111  plane waves:    2260
 k-point 114 :   0.4444 0.1667 0.1111  plane waves:    2258
 k-point 115 :   0.5000 0.1667 0.1111  plane waves:    2262
 k-point 116 :   0.2222 0.2222 0.1111  plane waves:    2271
 k-point 117 :   0.2778 0.2222 0.1111  plane waves:    2265
 k-point 118 :   0.3333 0.2222 0.1111  plane waves:    2262
 k-point 119 :   0.3889 0.2222 0.1111  plane waves:    2259
 k-point 120 :   0.4444 0.2222 0.1111  plane waves:    2255
 k-point 121 :   0.5000 0.2222 0.1111  plane waves:    2262
 k-point 122 :   0.2778 0.2778 0.1111  plane waves:    2267
 k-point 123 :   0.3333 0.2778 0.1111  plane waves:    2266
 k-point 124 :   0.3889 0.2778 0.1111  plane waves:    2261
 k-point 125 :   0.4444 0.2778 0.1111  plane waves:    2267
 k-point 126 :   0.5000 0.2778 0.1111  plane waves:    2262
 k-point 127 :   0.3333 0.3333 0.1111  plane waves:    2269
 k-point 128 :   0.3889 0.3333 0.1111  plane waves:    2266
 k-point 129 :   0.4444 0.3333 0.1111  plane waves:    2274
 k-point 130 :   0.5000 0.3333 0.1111  plane waves:    2274
 k-point 131 :   0.3889 0.3889 0.1111  plane waves:    2268
 k-point 132 :   0.4444 0.3889 0.1111  plane waves:    2266
 k-point 133 :   0.5000 0.3889 0.1111  plane waves:    2270
 k-point 134 :   0.4444 0.4444 0.1111  plane waves:    2272
 k-point 135 :   0.5000 0.4444 0.1111  plane waves:    2268
 k-point 136 :   0.5000 0.5000 0.1111  plane waves:    2276
 k-point 137 :   0.1667 0.1667 0.1667  plane waves:    2280
 k-point 138 :   0.2222 0.1667 0.1667  plane waves:    2271
 k-point 139 :   0.2778 0.1667 0.1667  plane waves:    2266
 k-point 140 :   0.3333 0.1667 0.1667  plane waves:    2250
 k-point 141 :   0.3889 0.1667 0.1667  plane waves:    2268
 k-point 142 :   0.4444 0.1667 0.1667  plane waves:    2257
 k-point 143 :   0.5000 0.1667 0.1667  plane waves:    2260
 k-point 144 :   0.2222 0.2222 0.1667  plane waves:    2266
 k-point 145 :   0.2778 0.2222 0.1667  plane waves:    2261
 k-point 146 :   0.3333 0.2222 0.1667  plane waves:    2261
 k-point 147 :   0.3889 0.2222 0.1667  plane waves:    2261
 k-point 148 :   0.4444 0.2222 0.1667  plane waves:    2257
 k-point 149 :   0.5000 0.2222 0.1667  plane waves:    2256
 k-point 150 :   0.2778 0.2778 0.1667  plane waves:    2264
 k-point 151 :   0.3333 0.2778 0.1667  plane waves:    2260
 k-point 152 :   0.3889 0.2778 0.1667  plane waves:    2263
 k-point 153 :   0.4444 0.2778 0.1667  plane waves:    2268
 k-point 154 :   0.5000 0.2778 0.1667  plane waves:    2268
 k-point 155 :   0.3333 0.3333 0.1667  plane waves:    2264
 k-point 156 :   0.3889 0.3333 0.1667  plane waves:    2273
 k-point 157 :   0.4444 0.3333 0.1667  plane waves:    2266
 k-point 158 :   0.5000 0.3333 0.1667  plane waves:    2276
 k-point 159 :   0.3889 0.3889 0.1667  plane waves:    2276
 k-point 160 :   0.4444 0.3889 0.1667  plane waves:    2274
 k-point 161 :   0.5000 0.3889 0.1667  plane waves:    2280
 k-point 162 :   0.4444 0.4444 0.1667  plane waves:    2277
 k-point 163 :   0.5000 0.4444 0.1667  plane waves:    2274
 k-point 164 :   0.5000 0.5000 0.1667  plane waves:    2268
 k-point 165 :   0.2222 0.2222 0.2222  plane waves:    2250
 k-point 166 :   0.2778 0.2222 0.2222  plane waves:    2260
 k-point 167 :   0.3333 0.2222 0.2222  plane waves:    2268
 k-point 168 :   0.3889 0.2222 0.2222  plane waves:    2266
 k-point 169 :   0.4444 0.2222 0.2222  plane waves:    2275
 k-point 170 :   0.5000 0.2222 0.2222  plane waves:    2260
 k-point 171 :   0.2778 0.2778 0.2222  plane waves:    2268
 k-point 172 :   0.3333 0.2778 0.2222  plane waves:    2265
 k-point 173 :   0.3889 0.2778 0.2222  plane waves:    2267
 k-point 174 :   0.4444 0.2778 0.2222  plane waves:    2271
 k-point 175 :   0.5000 0.2778 0.2222  plane waves:    2270
 k-point 176 :   0.3333 0.3333 0.2222  plane waves:    2272
 k-point 177 :   0.3889 0.3333 0.2222  plane waves:    2278
 k-point 178 :   0.4444 0.3333 0.2222  plane waves:    2273
 k-point 179 :   0.5000 0.3333 0.2222  plane waves:    2272
 k-point 180 :   0.3889 0.3889 0.2222  plane waves:    2279
 k-point 181 :   0.4444 0.3889 0.2222  plane waves:    2278
 k-point 182 :   0.5000 0.3889 0.2222  plane waves:    2274
 k-point 183 :   0.4444 0.4444 0.2222  plane waves:    2281
 k-point 184 :   0.5000 0.4444 0.2222  plane waves:    2282
 k-point 185 :   0.5000 0.5000 0.2222  plane waves:    2284
 k-point 186 :   0.2778 0.2778 0.2778  plane waves:    2250
 k-point 187 :   0.3333 0.2778 0.2778  plane waves:    2268
 k-point 188 :   0.3889 0.2778 0.2778  plane waves:    2272
 k-point 189 :   0.4444 0.2778 0.2778  plane waves:    2272
 k-point 190 :   0.5000 0.2778 0.2778  plane waves:    2274
 k-point 191 :   0.3333 0.3333 0.2778  plane waves:    2271
 k-point 192 :   0.3889 0.3333 0.2778  plane waves:    2273
 k-point 193 :   0.4444 0.3333 0.2778  plane waves:    2276
 k-point 194 :   0.5000 0.3333 0.2778  plane waves:    2278
 k-point 195 :   0.3889 0.3889 0.2778  plane waves:    2284
 k-point 196 :   0.4444 0.3889 0.2778  plane waves:    2286
 k-point 197 :   0.5000 0.3889 0.2778  plane waves:    2282
 k-point 198 :   0.4444 0.4444 0.2778  plane waves:    2289
 k-point 199 :   0.5000 0.4444 0.2778  plane waves:    2296
 k-point 200 :   0.5000 0.5000 0.2778  plane waves:    2292
 k-point 201 :   0.3333 0.3333 0.3333  plane waves:    2284
 k-point 202 :   0.3889 0.3333 0.3333  plane waves:    2278
 k-point 203 :   0.4444 0.3333 0.3333  plane waves:    2282
 k-point 204 :   0.5000 0.3333 0.3333  plane waves:    2274
 k-point 205 :   0.3889 0.3889 0.3333  plane waves:    2293
 k-point 206 :   0.4444 0.3889 0.3333  plane waves:    2284
 k-point 207 :   0.5000 0.3889 0.3333  plane waves:    2288
 k-point 208 :   0.4444 0.4444 0.3333  plane waves:    2285
 k-point 209 :   0.5000 0.4444 0.3333  plane waves:    2284
 k-point 210 :   0.5000 0.5000 0.3333  plane waves:    2292
 k-point 211 :   0.3889 0.3889 0.3889  plane waves:    2284
 k-point 212 :   0.4444 0.3889 0.3889  plane waves:    2282
 k-point 213 :   0.5000 0.3889 0.3889  plane waves:    2284
 k-point 214 :   0.4444 0.4444 0.3889  plane waves:    2282
 k-point 215 :   0.5000 0.4444 0.3889  plane waves:    2284
 k-point 216 :   0.5000 0.5000 0.3889  plane waves:    2296
 k-point 217 :   0.4444 0.4444 0.4444  plane waves:    2287
 k-point 218 :   0.5000 0.4444 0.4444  plane waves:    2292
 k-point 219 :   0.5000 0.5000 0.4444  plane waves:    2292
 k-point 220 :   0.5000 0.5000 0.5000  plane waves:    2272

 maximum and minimum number of plane-waves per node :      2301     2216

 maximum number of plane-waves:      2301
 maximum index in each direction: 
   IXMAX=    8   IYMAX=    8   IZMAX=    8
   IXMIN=   -8   IYMIN=   -8   IZMIN=   -8


 serial   3D FFT for wavefunctions
 parallel 3D FFT for charge:
    minimum data exchange during FFTs selected (reduces bandwidth)


 total amount of memory used by VASP MPI-rank0   407666. kBytes
=======================================================================

   base      :      30000. kBytes
   nonl-proj :      73222. kBytes
   fftplans  :       8293. kBytes
   grid      :       3290. kBytes
   one-center:        124. kBytes
   wavefun   :     292737. kBytes

     INWAV:  cpu time      0.0001: real time      0.0001
 Broyden mixing: mesh for mixing (old mesh)
   NGX = 17   NGY = 17   NGZ = 17
  (NGX  = 48   NGY  = 48   NGZ  = 48)
  gives a total of   4913 points

 initial charge density was supplied:
 charge density of overlapping atoms calculated
 number of electron     112.0000000 magnetization 
 keeping initial charge density in first step


--------------------------------------------------------------------------------------------------------


 Maximum index for augmentation-charges         9973 (set IRDMAX)


--------------------------------------------------------------------------------------------------------


 First call to EWALD:  gamma=   0.312
 Maximum number of real-space cells 3x 3x 3
 Maximum number of reciprocal cells 3x 3x 3

    FEWALD:  cpu time      0.0010: real time      0.0010


--------------------------------------- Iteration      1(   1)  ---------------------------------------


    POTLOK:  cpu time      0.0344: real time      0.0350
    SETDIJ:  cpu time      0.0405: real time      0.0405
     EDDAV:  cpu time     27.2514: real time     27.2574
       DOS:  cpu time      0.0083: real time      0.0091
    --------------------------------------------
      LOOP:  cpu time     27.3346: real time     27.3419

 eigenvalue-minimisations  : 34928
 total energy-change (2. order) : 0.1116458E+04  (-0.3971824E+04)
 number of electron     112.0000000 magnetization 
 augmentation part      112.0000000 magnetization 

 Free energy of the ion-electron system (eV)
  ---------------------------------------------------
  alpha Z        PSCENC =       513.00878703
  Ewald energy   TEWEN  =    -10716.38089000
  -Hartree energ DENC   =     -6078.22683545
  -exchange      EXHF   =         0.00000000
  -V(xc)+E(xc)   XCENC  =       584.23678287
  PAW double counting   =     14692.92666959   -18172.63018018
  entropy T*S    EENTRO =        -0.00150287
  eigenvalues    EBANDS =      -476.17438713
  atomic energy  EATOM  =     20769.69984000
  Solvation  Ediel_sol  =         0.00000000
  ---------------------------------------------------
  free energy    TOTEN  =      1116.45828386 eV

  energy without entropy =     1116.45978672  energy(sigma->0) =     1116.45903529


--------------------------------------------------------------------------------------------------------




--------------------------------------- Iteration      1(   2)  ---------------------------------------


     EDDAV:  cpu time     25.2606: real time     25.2582
       DOS:  cpu time      0.0136: real time      0.0136
    --------------------------------------------
      LOOP:  cpu time     25.2742: real time     25.2718

 eigenvalue-minimisations  : 29920
 total energy-change (2. order) :-0.9445602E+03  (-0.9143241E+03)
 number of electron     112.0000000 magnetization 
 augmentation part      112.0000000 magnetization 

 Free energy of the ion-electron system (eV)
  ---------------------------------------------------
  alpha Z        PSCENC =       513.00878703
  Ewald energy   TEWEN  =    -10716.38089000
  -Hartree energ DENC   =     -6078.22683545
  -exchange      EXHF   =         0.00000000
[...]
     15     -20.0715      2.00000
     16     -20.0715      2.00000
     17     -20.0715      2.00000
     18     -20.0711      2.00000
     19     -20.0711      2.00000
     20     -20.0711      2.00000
     21     -19.9553      2.00000
     22     -19.9553      2.00000
     23     -19.9553      2.00000
     24     -19.9537      2.00000
     25     -19.9537      2.00000
     26     -19.9537      2.00000
     27     -19.9523      2.00000
     28     -19.9523      2.00000
     29     -19.9393      2.00000
     30     -19.9393      2.00000
     31     -19.9393      2.00000
     32     -19.9358      2.00000
     33     -19.8827      2.00000
     34     -19.8827      2.00000
     35     -19.8817      2.00000
     36     -19.8817      2.00000
     37     -19.8817      2.00000
     38     -19.8794      2.00000
     39     -19.8794      2.00000
     40     -19.8794      2.00000
     41      -5.9915      2.00000
     42      -5.8493      2.00000
     43      -5.8493      2.00000
     44      -5.8493      2.00000
     45      -2.7786      2.00000
     46      -2.7786      2.00000
     47      -2.7786      2.00000
     48      -2.6060      2.00000
     49       2.8784      2.00000
     50       2.8784      2.00000
     51       2.8784      2.00000
     52       3.1987      2.00000
     53       3.1987      2.00000
     54       3.1987      2.00000
     55       3.2988      2.00000
     56       3.2988      2.00000
     57       4.7149      0.06427
     58       5.1067      0.00000
     59       5.1067      0.00000
     60       5.1067      0.00000
     61       8.2570      0.00000
     62       8.2570      0.00000
     63       8.2570      0.00000
     64       8.3548      0.00000
     65       8.3548      0.00000
     66       8.4932      0.00000
     67       8.4932      0.00000
     68       8.4932      0.00000

 k-point   218 :       0.5000    0.4444    0.4444
  band No.  band energies     occupation 
      1     -20.1663      2.00000
      2     -20.1663      2.00000
      3     -20.1649      2.00000
      4     -20.1649      2.00000
      5     -20.1644      2.00000
      6     -20.1644      2.00000
      7     -20.1638      2.00000
      8     -20.1638      2.00000
      9     -20.1248      2.00000
     10     -20.1248      2.00000
     11     -20.1227      2.00000
     12     -20.1227      2.00000
     13     -20.0731      2.00000
     14     -20.0731      2.00000
     15     -20.0723      2.00000
     16     -20.0723      2.00000
     17     -20.0719      2.00000
     18     -20.0719      2.00000
     19     -20.0713      2.00000
     20     -20.0713      2.00000
     21     -19.9542      2.00000
     22     -19.9542      2.00000
     23     -19.9538      2.00000
     24     -19.9538      2.00000
     25     -19.9537      2.00000
     26     -19.9537      2.00000
     27     -19.9522      2.00000
     28     -19.9522      2.00000
     29     -19.9389      2.00000
     30     -19.9389      2.00000
     31     -19.9369      2.00000
     32     -19.9369      2.00000
     33     -19.8828      2.00000
     34     -19.8828      2.00000
     35     -19.8816      2.00000
     36     -19.8816      2.00000
     37     -19.8815      2.00000
     38     -19.8815      2.00000
     39     -19.8804      2.00000
     40     -19.8804      2.00000
     41      -5.9166      2.00000
     42      -5.9166      2.00000
     43      -5.8430      2.00000
     44      -5.8430      2.00000
     45      -2.8017      2.00000
     46      -2.8017      2.00000
     47      -2.7131      2.00000
     48      -2.7131      2.00000
     49       2.9470      2.00000
     50       2.9470      2.00000
     51       3.1775      2.00000
     52       3.1775      2.00000
     53       3.2273      2.00000
     54       3.2273      2.00000
     55       3.2509      2.00000
     56       3.2509      2.00000
     57       4.8268      0.00000
     58       4.8268      0.00000
     59       5.0163      0.00000
     60       5.0163      0.00000
     61       8.2890      0.00000
     62       8.2890      0.00000
     63       8.3097      0.00000
     64       8.3097      0.00000
     65       8.4031      0.00000
     66       8.4031      0.00000
     67       8.4428      0.00000
     68       8.4428      0.00000

 k-point   219 :       0.5000    0.5000    0.4444
  band No.  band energies     occupation 
      1     -20.1646      2.00000
      2     -20.1646      2.00000
      3     -20.1646      2.00000
      4     -20.1646      2.00000
      5     -20.1643      2.00000
      6     -20.1643      2.00000
      7     -20.1643      2.00000
      8     -20.1643      2.00000
      9     -20.1246      2.00000
     10     -20.1246      2.00000
     11     -20.1246      2.00000
     12     -20.1246      2.00000
     13     -20.0729      2.00000
     14     -20.0729      2.00000
     15     -20.0729      2.00000
     16     -20.0729      2.00000
     17     -20.0722      2.00000
     18     -20.0722      2.00000
     19     -20.0722      2.00000
     20     -20.0722      2.00000
     21     -19.9534      2.00000
     22     -19.9534      2.00000
     23     -19.9534      2.00000
     24     -19.9534      2.00000
     25     -19.9527      2.00000
     26     -19.9527      2.00000
     27     -19.9527      2.00000
     28     -19.9527      2.00000
     29     -19.9373      2.00000
     30     -19.9373      2.00000
     31     -19.9373      2.00000
     32     -19.9373      2.00000
     33     -19.8821      2.00000
     34     -19.8821      2.00000
     35     -19.8821      2.00000
     36     -19.8821      2.00000
     37     -19.8817      2.00000
     38     -19.8817      2.00000
     39     -19.8817      2.00000
     40     -19.8817      2.00000
     41      -5.8742      2.00000
     42      -5.8742      2.00000
     43      -5.8742      2.00000
     44      -5.8742      2.00000
     45      -2.7801      2.00000
     46      -2.7801      2.00000
     47      -2.7801      2.00000
     48      -2.7801      2.00000
     49       3.1427      2.00000
     50       3.1427      2.00000
     51       3.1427      2.00000
     52       3.1427      2.00000
     53       3.2700      2.00000
     54       3.2700      2.00000
     55       3.2700      2.00000
     56       3.2700      2.00000
     57       4.8166      0.00000
     58       4.8166      0.00000
     59       4.8166      0.00000
     60       4.8166      0.00000
     61       8.3381      0.00000
     62       8.3381      0.00000
     63       8.3381      0.00000
     64       8.3381      0.00000
     65       8.3687      0.00000
     66       8.3687      0.00000
     67       8.3687      0.00000
     68       8.3687      0.00000

 k-point   220 :       0.5000    0.5000    0.5000
  band No.  band energies     occupation 
      1     -20.1639      2.00000
      2     -20.1639      2.00000
      3     -20.1639      2.00000
      4     -20.1639      2.00000
      5     -20.1639      2.00000
      6     -20.1639      2.00000
      7     -20.1639      2.00000
      8     -20.1639      2.00000
      9     -20.1253      2.00000
     10     -20.1253      2.00000
     11     -20.1253      2.00000
     12     -20.1253      2.00000
     13     -20.0728      2.00000
     14     -20.0728      2.00000
     15     -20.0728      2.00000
     16     -20.0728      2.00000
     17     -20.0728      2.00000
     18     -20.0728      2.00000
     19     -20.0728      2.00000
     20     -20.0728      2.00000
     21     -19.9526      2.00000
     22     -19.9526      2.00000
     23     -19.9526      2.00000
     24     -19.9526      2.00000
     25     -19.9526      2.00000
     26     -19.9526      2.00000
     27     -19.9526      2.00000
     28     -19.9526      2.00000
     29     -19.9364      2.00000
     30     -19.9364      2.00000
     31     -19.9364      2.00000
     32     -19.9364      2.00000
     33     -19.8821      2.00000
     34     -19.8821      2.00000
     35     -19.8821      2.00000
     36     -19.8821      2.00000
     37     -19.8821      2.00000
     38     -19.8821      2.00000
     39     -19.8821      2.00000
     40     -19.8821      2.00000
     41      -5.8679      2.00000
     42      -5.8679      2.00000
     43      -5.8679      2.00000
     44      -5.8679      2.00000
     45      -2.8037      2.00000
     46      -2.8037      2.00000
     47      -2.8037      2.00000
     48      -2.8037      2.00000
     49       3.2730      2.00000
     50       3.2730      2.00000
     51       3.2730      2.00000
     52       3.2730      2.00000
     53       3.2730      2.00000
     54       3.2730      2.00000
     55       3.2730      2.00000
     56       3.2730      2.00000
     57       4.6896      0.25599
     58       4.6896      0.25599
     59       4.6896      0.25599
     60       4.6896      0.25599
     61       8.3467      0.00000
     62       8.3467      0.00000
     63       8.3467      0.00000
     64       8.3467      0.00000
     65       8.3467      0.00000
     66       8.3467      0.00000
     67       8.3467      0.00000
     68       8.3467      0.00000


--------------------------------------------------------------------------------------------------------


 soft charge-density along one line, spin component           1
         0         1         2         3         4         5         6         7         8         9
 total charge-density along one line

 pseudopotential strength for first ion, spin component:           1
-22.567  -0.000   0.000  -0.000  -0.000   4.516   0.000  -0.000
 -0.000 -22.567   0.000  -0.000   0.000   0.000   4.516  -0.000
  0.000   0.000 -22.567   0.000   0.000  -0.000  -0.000   4.516
 -0.000  -0.000   0.000 -22.567  -0.000   0.000   0.000  -0.000
 -0.000   0.000   0.000  -0.000 -22.567   0.000  -0.000  -0.000
  4.516   0.000  -0.000   0.000   0.000   1.888  -0.000  -0.000
  0.000   4.516  -0.000   0.000  -0.000  -0.000   1.888  -0.000
 -0.000  -0.000   4.516  -0.000  -0.000  -0.000  -0.000   1.887
  0.000   0.000  -0.000   4.516   0.000  -0.000  -0.000  -0.000
  0.000  -0.000  -0.000   0.000   4.516   0.000  -0.000  -0.000
 -0.000  -0.000  -0.000  -0.000  -0.000   0.000   0.000   0.000
 -0.000  -0.000  -0.000  -0.000  -0.000   0.000   0.000   0.000
  0.000   0.000  -0.000  -0.001   0.000  -0.000  -0.000   0.000
 -0.001  -0.000  -0.000  -0.000   0.000   0.001   0.000   0.000
  0.000  -0.001  -0.000   0.000  -0.000  -0.000   0.001   0.000
  0.000   0.000  -0.000  -0.002   0.000  -0.000  -0.000   0.000
 -0.002  -0.000  -0.000  -0.000   0.000   0.001  -0.000   0.000
  0.000  -0.002  -0.000   0.000  -0.000  -0.000   0.001   0.000
 total augmentation occupancy for first ion, spin component:           1
  2.006   0.000   0.000   0.000  -0.000   0.017   0.000   0.000   0.000  -0.000  -0.000   0.000   0.000   0.050  -0.000  -0.000
  0.000   2.006   0.000  -0.000  -0.000   0.000   0.017   0.000  -0.000  -0.000  -0.000   0.000   0.000   0.000   0.050   0.000
  0.000   0.000   2.003   0.000   0.000   0.000   0.000   0.009   0.000   0.000   0.000   0.000   0.000   0.000   0.000  -0.000
  0.000  -0.000   0.000   2.006   0.000   0.000  -0.000   0.000   0.017   0.000   0.000   0.000   0.050   0.000  -0.000  -0.015
 -0.000  -0.000  -0.000   0.000   2.003  -0.000  -0.000  -0.000   0.000   0.009  -0.000  -0.000   0.000  -0.000  -0.000  -0.000
  0.017   0.000   0.000   0.000  -0.000   0.039   0.000   0.000   0.000  -0.000   0.000   0.000   0.000   0.206   0.000  -0.000
  0.000   0.017   0.000  -0.000  -0.000   0.000   0.039   0.000  -0.000  -0.000   0.000  -0.000  -0.000   0.000   0.206   0.000
  0.000   0.000   0.009   0.000   0.000   0.000   0.000   0.011   0.000   0.000   0.000   0.000   0.000   0.000   0.000  -0.000
  0.000  -0.000   0.000   0.017   0.000   0.000  -0.000   0.000   0.039   0.000   0.000  -0.000   0.206   0.000  -0.000  -0.035
 -0.000  -0.000  -0.000   0.000   0.009  -0.000  -0.000   0.000   0.000   0.011   0.000  -0.000  -0.000  -0.000  -0.000  -0.000
  0.000  -0.000   0.000   0.000  -0.000   0.000   0.000   0.000   0.000   0.000   3.404  -0.975  -0.000   0.000   0.000  -0.000
  0.000   0.000   0.000  -0.000  -0.000   0.000  -0.000   0.000  -0.000   0.000  -0.975   0.451   0.000   0.000   0.000  -0.000
  0.000   0.000   0.000   0.050   0.000   0.000   0.000   0.000   0.206   0.000   0.000   0.000   1.931   0.000  -0.000  -0.314
  0.050   0.000   0.000   0.000  -0.000   0.206   0.000   0.000   0.000  -0.000   0.000   0.000   0.000   1.931   0.000  -0.000
 -0.000   0.050   0.000  -0.000  -0.000   0.000   0.206   0.000  -0.000  -0.000   0.000   0.000  -0.000   0.000   1.931   0.000
 -0.000   0.000  -0.000  -0.015  -0.000  -0.000   0.000  -0.000  -0.035   0.000   0.000  -0.000  -0.314  -0.000   0.000   0.058
 -0.015  -0.000  -0.000  -0.000   0.000  -0.035  -0.000  -0.000  -0.000   0.000   0.000  -0.000  -0.000  -0.314  -0.000   0.000
 -0.000  -0.015  -0.000   0.000   0.000  -0.000  -0.035  -0.000   0.000   0.000   0.000   0.000   0.000  -0.000  -0.314  -0.000


------------------------ aborting loop because EDIFF is reached ----------------------------------------


    CHARGE:  cpu time      1.5830: real time      1.5830
    FORLOC:  cpu time      0.0014: real time      0.0014
    FORNL :  cpu time     15.8944: real time     15.8935
    STRESS:  cpu time     11.6496: real time     11.6486
    FORCOR:  cpu time      0.0413: real time      0.0413
    FORHAR:  cpu time      0.0061: real time      0.0061
    MIXING:  cpu time      0.0014: real time      0.0014
    OFIELD:  cpu time      0.0000: real time      0.0000

  FORCE on cell =-STRESS in cart. coord.  units (eV):
  Direction    XX          YY          ZZ          XY          YZ          ZX
  --------------------------------------------------------------------------------------
  Alpha Z   497.94498   497.94498   497.94498
  Ewald   -3536.82154 -3536.82154 -3536.82154     0.00000     0.00000     0.00000
  Hartree  2048.75008  2048.75008  2048.75008    -0.00000    -0.00000    -0.00000
  E(xc)    -658.54530  -658.54530  -658.54530    -0.00000    -0.00000    -0.00000
  Local    -163.87493  -163.87493  -163.87493    -0.00000     0.00000     0.00000
  n-local   225.53865   231.25017   224.16416    -3.29496    -2.95644    -1.48696
  augment  1007.74407  1007.74407  1007.74477     0.00002     0.00034     0.00034
  Kinetic   570.27366   584.25685   578.89070    -4.20731    -6.70594    -2.79667
  Fock        0.00000     0.00000     0.00000     0.00000     0.00000     0.00000
  -------------------------------------------------------------------------------------
  Total      -0.01100    -0.01100    -0.01100    -0.00000     0.00000    -0.00000
  in kB      -0.09357    -0.09357    -0.09357    -0.00000     0.00000    -0.00000
  external pressure =       -0.09 kB  Pullay stress =        0.00 kB


 VOLUME and BASIS-vectors are now :
 -----------------------------------------------------------------------------
  energy-cutoff  :      310.29
  volume of cell :      188.28
      direct lattice vectors                 reciprocal lattice vectors
     5.731511796 -0.000000000  0.000000000     0.174474037  0.000000000 -0.000000000
    -0.000000000  5.731511796  0.000000000     0.000000000  0.174474037 -0.000000000
     0.000000000  0.000000000  5.731511796    -0.000000000 -0.000000000  0.174474037

  length of vectors
     5.731511796  5.731511796  5.731511796     0.174474037  0.174474037  0.174474037


 FORCES acting on ions
    electron-ion (+dipol)            ewald-force                    non-local-force                 convergence-correction
 -----------------------------------------------------------------------------------------------
   -.141E-05 -.141E-05 -.391E-07   -.171E-12 -.568E-13 -.568E-13   -.929E-17 -.918E-17 0.210E-16   0.155E-12 0.376E-13 -.385E-12
   0.141E-05 0.141E-05 0.391E-07   -.614E-13 -.309E-13 0.284E-13   0.273E-16 -.227E-16 0.851E-17   -.190E-12 -.632E-12 0.329E-14
   -.141E-05 -.141E-05 -.391E-07   -.114E-12 -.284E-13 -.284E-13   0.254E-16 -.308E-16 -.252E-16   0.119E-12 0.126E-12 -.412E-12
   0.141E-05 0.141E-05 0.391E-07   -.113E-13 -.324E-15 0.560E-13   -.113E-16 -.222E-16 0.358E-16   -.140E-12 -.573E-12 0.516E-13
   -.141E-05 -.141E-05 -.392E-07   0.000E+00 0.000E+00 -.568E-13   -.213E-16 0.263E-16 0.651E-17   0.517E-13 0.422E-13 -.412E-12
   0.141E-05 0.141E-05 0.391E-07   0.848E-13 0.279E-13 0.275E-13   0.111E-17 -.189E-16 -.222E-16   -.242E-12 -.659E-12 0.761E-13
   -.141E-05 -.141E-05 -.391E-07   0.853E-13 0.284E-13 -.284E-13   0.425E-16 0.237E-16 -.355E-16   0.923E-13 0.144E-12 -.410E-12
   0.141E-05 0.141E-05 0.392E-07   0.170E-12 0.576E-13 0.566E-13   -.391E-16 0.319E-16 0.254E-16   -.235E-12 -.603E-12 0.187E-13
 -----------------------------------------------------------------------------------------------
   0.855E-11 0.207E-11 0.589E-12   -.167E-13 -.262E-14 -.207E-14   0.153E-16 -.219E-16 0.144E-16   -.388E-12 -.212E-11 -.147E-11


 POSITION                                       TOTAL-FORCE (eV/Angst)
 -----------------------------------------------------------------------------------
      0.00000      0.00000      2.86576         0.000000      0.000000      0.000000
      1.43288      1.43288      4.29863        -0.000000     -0.000000     -0.000000
     -0.00000      2.86576      0.00000         0.000000      0.000000      0.000000
      1.43288      4.29863      1.43288        -0.000000      0.000000     -0.000000
      2.86576     -0.00000      0.00000         0.000000      0.000000      0.000000
      4.29863      1.43288      1.43288        -0.000000     -0.000000     -0.000000
      2.86576      2.86576      2.86576         0.000000     -0.000000      0.000000
      4.29863      4.29863      4.29863        -0.000000     -0.000000     -0.000000
 -----------------------------------------------------------------------------------
    total drift:                                0.000000     -0.000000     -0.000000


--------------------------------------------------------------------------------------------------------



  FREE ENERGIE OF THE ION-ELECTRON SYSTEM (eV)
  ---------------------------------------------------
  free  energy   TOTEN  =       -36.13050066 eV

  energy  without entropy=      -36.13044571  energy(sigma->0) =      -36.13047319

 d Force = 0.0000000E+00[ 0.000E+00, 0.000E+00]  d Energy = 0.1628703E-01-0.163E-01
 d Force = 0.0000000E+00[ 0.000E+00, 0.000E+00]  d Ewald  = 0.6635704E+02-0.664E+02


--------------------------------------------------------------------------------------------------------


    POTLOK:  cpu time      0.0680: real time      0.0679


--------------------------------------------------------------------------------------------------------




--------------------------------------------------------------------------------------------------------


  
 reached required accuracy - stopping structural energy minimisation
 writing wavefunctions
     LOOP+:  cpu time    329.9038: real time    329.8939
    4ORBIT:  cpu time      0.0000: real time      0.0000

 total amount of memory used by VASP MPI-rank0   407666. kBytes
=======================================================================

   base      :      30000. kBytes
   nonl-proj :      73222. kBytes
   fftplans  :       8293. kBytes
   grid      :       3290. kBytes
   one-center:        124. kBytes
   wavefun   :     292737. kBytes

  
  
 General timing and accounting informations for this job:
 ========================================================
  
                  Total CPU time used (sec):     1177.383
                            User time (sec):     1132.898
                          System time (sec):       44.484
                         Elapsed time (sec):     1177.615
  
                   Maximum memory used (kb):      445208.
                   Average memory used (kb):          N/A
  
                          Minor page faults:       352598
                          Major page faults:          307
                 Voluntary context switches:         1344
