       N       E                     dE             d eps       ncg     rms          rms(c)
DAV:   1    -0.532361113145E+05   -0.53236E+05   -0.18275E+01   720   0.146E+01    0.560E-01
DAV:   2    -0.532361136285E+05   -0.23140E-02   -0.22817E-02   920   0.451E-01    0.486E-01
DAV:   3    -0.532361150905E+05   -0.14621E-02   -0.48736E-04   752   0.602E-02    0.271E-01
DAV:   4    -0.532361159377E+05   -0.84716E-03   -0.66688E-04   744   0.629E-02    0.263E-02
DAV:   5    -0.532361159272E+05    0.10486E-04   -0.29637E-05   544   0.222E-02    0.189E-02
DAV:   6    -0.532361159235E+05    0.36949E-05   -0.18942E-05   392   0.122E-02
   1 F= -.53236116E+05 E0= -.53236110E+05  d E =-.111270E-01
