 vasp.6.3.2 27Jun22 (build Nov 28 2025 11:56:12) complex                         
 executed on             LinuxGNU date 2025.11.29  23:56:54
 running    2 mpi-ranks, with    1 threads/rank
 distrk:  each k-point on    2 cores,    1 groups
 distr:  one band on NCORE=   1 cores,    2 groups


--------------------------------------------------------------------------------------------------------


 INCAR:
   SYSTEM = Hg50_singlepoint
   PREC = Accurate
   ENCUT = 400
   ISMEAR = 0
   SIGMA = 0.05
   ALGO = Normal
   NELM = 500
   EDIFF = 1E-5
   LREAL = Auto
   ADDGRID = .TRUE.
   ISPIN = 1
   NSW = 0
   AMIX = 0.10
   BMIX = 1E-4

 POTCAR:   Hg: s-lok R=3.1 Ra=2.8 real-opt[3.2-6.2
 POTCAR:   Hg: s-lok R=3.1 Ra=2.8 real-opt[3.2-6.2
   VRHFIN =Hg: 10s 2d fine mesh  CA                                                                 
   LEXCH  = CA                                                                                      
   EATOM  =     0.0000 eV,  116.0819 Ry                                                             
                                                                                                    
   TITEL  = US Hg, faked                                                                            
   LULTRA =        T    use ultrasoft PP ?                                                          
   IUNSCR =        1    unscreen: 0-lin 1-nonlin 2-no                                               
   RPACOR =   -1.000    partial core radius                                                         
   POMASS =  200.590; ZVAL   =   12.000    mass and valenz                                          
   RCORE  =    3.050    outmost cutoff radius                                                       
   RWIGS  =    3.050; RWIGS  =    1.614    wigner-seitz radius (au A)                               
   ENMAX  =  158.977; ENMIN  =  119.233 eV                                                          
   EAUG   =  265.444                                                                                
                                                                                                    
   RCLOC  =    2.106    cutoff for local pot                                                        
   LCOR   =        T    correct aug charges                                                         
   RMAX   =    3.657    core radius for proj-oper                                                   
   QCUT   =   -3.000; QGAM   =    6.837    optimization parameters                                  
                                                                                                    
   Description                                                                                      
     l     E      TYP  RCUT    TYP  RCUT                                                            
     2   .000      7  2.470    23  3.050                                                            
     2   .000      7  2.470    23  3.050                                                            
     0   .000     15  2.720    23  2.720                                                            
     1  -.200     15  2.720    23  3.050                                                            
END of PSCTR-controll parameters                                                                    
  local pseudopotential read in
  atomic valenz-charges read in
  non local Contribution for L=           2  read in
    real space projection operators read in
  non local Contribution for L=           2  read in
    real space projection operators read in
  non local Contribution for L=           1  read in
    real space projection operators read in
    augmentation charges read in

   number of l-projection  operators is LMAX  =           3
   number of lm-projection operators is LMMAX =          13

 Optimization of the real space projectors (new method)

 maximal supplied QI-value         = 13.42
 optimisation between [QCUT,QGAM] = [ 10.20, 20.39] = [ 29.12,116.47] Ry 
 Optimized for a Real-space Cutoff    2.42 Angstroem

   l    n(q)    QCUT    max X(q) W(low)/X(q) W(high)/X(q)  e(spline) 
   2     14    10.197    11.060    0.29E-03    0.80E-05    0.64E-06
   2     14    10.197     1.458    0.15E-03    0.50E-05    0.27E-05
   1     15    10.197     2.592    0.86E-04    0.76E-05    0.48E-06
 Hg: s-lok R=3.1 Ra=2.8 real-opt[3.2-6.2:
 energy of atom  1       EATOM=   -0.0000


 POSCAR: Hg: 50 Atome emty-core PP
  positions in direct lattice
  No initial velocities read in
 exchange correlation table for  LEXCH =        2
   RHO(1)=    0.500       N(1)  =     2000
   RHO(2)=  100.500       N(2)  =     4000



--------------------------------------------------------------------------------------------------------


 ion  position               nearest neighbor table
   1  0.300  0.973  0.680-  35 2.86  38 2.89   3 3.00  50 3.00  19 3.11   2 3.31  49 3.31   4 3.39
                            44 3.59  33 3.64  26 3.69
   2  0.100  0.867  0.887-   5 2.67  29 2.90  37 3.02  30 3.07  47 3.07   1 3.31  19 3.36  49 3.36
                             8 3.47  48 3.49   3 3.49  13 3.78
   3  0.423  0.858  0.901-   1 3.00  47 3.04  19 3.08  30 3.10  28 3.13   4 3.28  16 3.36  31 3.42
                             2 3.49  18 3.50  44 3.70
   4  0.614  0.945  0.681-  35 2.89  28 3.05  50 3.10  48 3.14  45 3.19   3 3.28   8 3.34   1 3.39
                            44 3.41  20 3.53  39 3.54
   5  0.971  0.656  0.884-  12 2.42   2 2.67  13 3.17  47 3.21  28 3.39  25 3.42  45 3.67  49 3.67
                            14 3.69  29 3.78  41 3.85
   6  0.352  0.342  0.113-  42 2.68  14 3.24  19 3.25  31 3.27  27 3.29  15 3.33  23 3.46  13 3.62
                            10 3.65  34 3.70   9 3.72
   7  0.323  0.435  0.683-  47 2.76  14 2.90  22 2.95   9 3.04  50 3.06  44 3.13  15 3.15  27 3.53
                            38 3.59  11 3.82
   8  0.801  0.978  0.925-  29 2.62  10 2.93  37 2.98  48 3.09  16 3.09  36 3.22   4 3.34  28 3.35
                             2 3.47  17 3.60
   9  0.356  0.279  0.452-  27 2.68  50 3.02  43 3.03   7 3.04  35 3.14  34 3.51  42 3.51  38 3.54
                             6 3.72  33 3.77
  10  0.611  0.151  0.009-  36 2.77  34 2.87  17 2.88   8 2.93  16 3.05  18 3.57  19 3.59   6 3.65
                            15 3.67  23 3.75  50 3.77
  11  0.665  0.522  0.668-  28 2.74  15 2.87  45 2.88  41 2.97  44 2.98  43 3.21  40 3.22  39 3.35
                            36 3.52   7 3.82
  12  0.895  0.464  0.971-   5 2.42  36 2.99  25 3.07  14 3.15  17 3.18  23 3.30  21 3.35  13 3.46
                            41 3.56
  13  0.143  0.606  0.116-  30 3.01  21 3.03  31 3.13   5 3.17  46 3.19  27 3.30  47 3.42  12 3.46
                            14 3.56   6 3.62   2 3.78  25 3.81
  14  0.158  0.371  0.886-   7 2.90  37 2.94  12 3.15  47 3.18  19 3.22   6 3.24  38 3.31  13 3.56
                             5 3.69  41 3.73  42 3.74  22 3.81
  15  0.529  0.458  0.888-  11 2.87  23 3.05   7 3.15  28 3.18   6 3.33  31 3.36  36 3.37  47 3.56
                            50 3.61  10 3.67
  16  0.624  0.899  0.135-  18 2.82  10 3.05   8 3.09  32 3.12  25 3.17   3 3.36  20 3.43  34 3.44
                            31 3.53  29 3.62  28 3.83
  17  0.829  0.231  0.140-  34 2.81  10 2.88  21 3.09  12 3.18  23 3.24  36 3.37  37 3.38  42 3.50
                            24 3.50  29 3.58   8 3.60
  18  0.388  0.992  0.194-  30 2.16  16 2.82  35 3.10  26 3.12  19 3.25  34 3.30   3 3.50  10 3.57
                            33 3.71  42 3.74
  19  0.290  0.108  0.934-  37 2.85   3 3.08   1 3.11  14 3.22  18 3.25   6 3.25   2 3.36  50 3.37
                            30 3.41  38 3.57  10 3.59  42 3.62
  20  0.778  0.980  0.401-  48 3.06  34 3.18  32 3.27  24 3.30  39 3.33  45 3.39  16 3.43   4 3.53
                            35 3.53  46 3.58  33 3.70  29 3.77
  21  0.978  0.438  0.269-  40 2.54  42 2.88  24 2.95  13 3.03  17 3.09  12 3.35  46 3.37  25 3.38
                            27 3.57  22 3.57  23 3.86
  22  0.086  0.516  0.572-  41 2.46  49 2.93   7 2.95  27 3.12  21 3.57  47 3.58  46 3.66  40 3.68
                            24 3.76  14 3.81  38 3.85  45 3.86
  23  0.644  0.469  0.146-  25 2.67  31 2.93  43 2.97  15 3.05  40 3.19  17 3.24  12 3.30  34 3.37
                             6 3.46  10 3.75  21 3.86  32 3.87
  24  0.966  0.219  0.433-  33 2.64  21 2.95  38 2.99  41 3.07  42 3.13  39 3.19  20 3.30  17 3.50
                            40 3.58  48 3.64  22 3.76
  25  0.797  0.663  0.149-  23 2.67  12 3.07  46 3.08  16 3.17  40 3.23  32 3.36  29 3.37  21 3.38
                             5 3.42  28 3.71  13 3.81
  26  0.289  0.800  0.385-  30 2.88  35 3.06  33 3.09  18 3.12  49 3.18  44 3.21  27 3.23  46 3.24
                            32 3.39  31 3.67   1 3.69
  27  0.288  0.502  0.365-   9 2.68  43 2.78  22 3.12  26 3.23   6 3.29  13 3.30  31 3.34   7 3.53
                            21 3.57  42 3.64  44 3.71
  28  0.666  0.714  0.836-  11 2.74  45 3.00   4 3.05   3 3.13  15 3.18   8 3.35   5 3.39  44 3.41
                            25 3.71  16 3.83
  29  0.956  0.928  0.105-   8 2.62   2 2.90  37 3.11  46 3.22  30 3.25  25 3.37  17 3.58  16 3.62
                            20 3.77   5 3.78  33 3.82
  30  0.249  0.863  0.129-  18 2.16  26 2.88  13 3.01   2 3.07   3 3.10  31 3.15  29 3.25  19 3.41
                            33 3.74  46 3.74
  31  0.431  0.635  0.125-  23 2.93  13 3.13  30 3.15   6 3.27  27 3.34  15 3.36   3 3.42  32 3.43
                            16 3.53  43 3.61  26 3.67  47 3.73
  32  0.596  0.740  0.375-  43 2.85  44 3.02  16 3.12  20 3.27  45 3.31  40 3.36  25 3.36  26 3.39
                            35 3.41  31 3.43  23 3.87
  33  0.117  0.029  0.403-  24 2.64  26 3.09  42 3.13  38 3.14  49 3.33  46 3.43   1 3.64  48 3.64
                            20 3.70  18 3.71  30 3.74   9 3.77  35 3.78  29 3.82
  34  0.611  0.186  0.273-  17 2.81  10 2.87  20 3.18  39 3.22  18 3.30  35 3.30  23 3.37  16 3.44
                             9 3.51  43 3.57   6 3.70
  35  0.460  0.008  0.471-   1 2.86   4 2.89  26 3.06  18 3.10  50 3.12   9 3.14  34 3.30  32 3.41
                            20 3.53  39 3.66  33 3.78  44 3.79
  36  0.765  0.261  0.835-  10 2.77  41 2.93  12 2.99  39 3.13   8 3.22  37 3.28  15 3.37  17 3.37
                            11 3.52  50 3.62
  37  0.028  0.135  0.918-  19 2.85  14 2.94   8 2.98   2 3.02  38 3.04  29 3.11  36 3.28  17 3.38
                            42 3.55  48 3.58
  38  0.123  0.171  0.656-   1 2.89  24 2.99  37 3.04  33 3.14  48 3.19  14 3.31  41 3.36   9 3.54
                            19 3.57   7 3.59  50 3.77  22 3.85
  39  0.697  0.235  0.554-  50 2.91  41 3.03  36 3.13  24 3.19  34 3.22  20 3.33  11 3.35  40 3.46
                             4 3.54  43 3.56  35 3.66  48 3.74
  40  0.793  0.499  0.400-  21 2.54  43 2.71  41 3.16  23 3.19  11 3.22  25 3.23  45 3.34  32 3.36
                            39 3.46  46 3.51  24 3.58  22 3.68
  41  0.908  0.396  0.648-  22 2.46  36 2.93  11 2.97  39 3.03  24 3.07  40 3.16  38 3.36  12 3.56
                            14 3.73   5 3.85
  42  0.146  0.240  0.206-   6 2.68  21 2.88  33 3.13  24 3.13  17 3.50   9 3.51  37 3.55  19 3.62
                            27 3.64  14 3.74  18 3.74
  43  0.542  0.483  0.401-  40 2.71  27 2.78  32 2.85  23 2.97   9 3.03  11 3.21  44 3.27  39 3.56
                            34 3.57  31 3.61
  44  0.450  0.685  0.607-  11 2.98  32 3.02   7 3.13  47 3.15  26 3.21  43 3.27   4 3.41  28 3.41
                             1 3.59   3 3.70  27 3.71  35 3.79
  45  0.807  0.736  0.597-  48 2.85  11 2.88  49 2.95  28 3.00   4 3.19  32 3.31  40 3.34  20 3.39
                            46 3.52   5 3.67  22 3.86
  46  0.999  0.742  0.335-  49 2.89  25 3.08  13 3.19  29 3.22  26 3.24  21 3.37  33 3.43  40 3.51
                            45 3.52  20 3.58  22 3.66  30 3.74
  47  0.261  0.640  0.824-   7 2.76   3 3.04   2 3.07  44 3.15  14 3.18   5 3.21  13 3.42  15 3.56
                            22 3.58  49 3.61  31 3.73
  48  0.902  0.975  0.656-  45 2.85  49 2.87  20 3.06   8 3.09   4 3.14  38 3.19   2 3.49  37 3.58
                            24 3.64  33 3.64  39 3.74
  49  0.075  0.786  0.587-  48 2.87  46 2.89  22 2.93  45 2.95  26 3.18   1 3.31  33 3.33   2 3.36
                            47 3.61   5 3.67
  50  0.469  0.193  0.693-  39 2.91   1 3.00   9 3.02   7 3.06   4 3.10  35 3.12  19 3.37  15 3.61
                            36 3.62  38 3.77  10 3.77

  LATTYP: Found a simple cubic cell.
 ALAT       =    10.7970000000
  
  Lattice vectors:
  
 A1 = (  10.7970000000,   0.0000000000,   0.0000000000)
 A2 = (   0.0000000000,  10.7970000000,   0.0000000000)
 A3 = (   0.0000000000,   0.0000000000,  10.7970000000)


Analysis of symmetry for initial positions (statically):
=====================================================================
 Subroutine PRICEL returns:
 Original cell was already a primitive cell.
 

 Routine SETGRP: Setting up the symmetry group for a 
 simple cubic supercell.


 Subroutine GETGRP returns: Found  1 space group operations
 (whereof  1 operations were pure point group operations)
 out of a pool of 48 trial point group operations.


The static configuration has the point symmetry C_1 .


Analysis of symmetry for dynamics (positions and initial velocities):
=====================================================================
 Subroutine PRICEL returns:
 Original cell was already a primitive cell.
 

 Routine SETGRP: Setting up the symmetry group for a 
 simple cubic supercell.


 Subroutine GETGRP returns: Found  1 space group operations
 (whereof  1 operations were pure point group operations)
 out of a pool of 48 trial point group operations.


The dynamic configuration has the point symmetry C_1 .


 Subroutine INISYM returns: Found  1 space group operations
 (whereof  1 operations are pure point group operations),
 and found     1 'primitive' translations


----------------------------------------------------------------------------------------

                                     Primitive cell                                     

  volume of cell :    1258.6625

  direct lattice vectors                    reciprocal lattice vectors
    10.797000000  0.000000000  0.000000000     0.092618320  0.000000000  0.000000000
     0.000000000 10.797000000  0.000000000     0.000000000  0.092618320  0.000000000
     0.000000000  0.000000000 10.797000000     0.000000000  0.000000000  0.092618320

  length of vectors
    10.797000000 10.797000000 10.797000000     0.092618320  0.092618320  0.092618320

  position of ions in fractional coordinates (direct lattice)
     0.300387000  0.972562000  0.679901000
     0.100399000  0.866618000  0.886586000
     0.423249000  0.857844000  0.900790000
     0.613554000  0.944543000  0.680853000
     0.970627000  0.656315000  0.884095000
     0.351857000  0.342419000  0.112772000
     0.322561000  0.435330000  0.683309000
     0.801257000  0.977938000  0.924631000
     0.355613000  0.279208000  0.451754000
     0.610843000  0.151156000  0.009135000
     0.664978000  0.522227000  0.668415000
     0.895048000  0.463963000  0.971092000
     0.143442000  0.605562000  0.116262000
     0.158326000  0.370853000  0.885693000
     0.529145000  0.457905000  0.887851000
     0.623846000  0.898892000  0.135456000
     0.828795000  0.231410000  0.139571000
     0.387649000  0.992483000  0.194004000
     0.290196000  0.108184000  0.933770000
     0.778191000  0.980289000  0.401008000
     0.978383000  0.437601000  0.269070000
     0.086086000  0.515543000  0.571579000
     0.644305000  0.468538000  0.145630000
     0.966275000  0.219162000  0.433028000
     0.797059000  0.662811000  0.149471000
     0.288510000  0.799938000  0.385229000
     0.288030000  0.501670000  0.364813000
     0.665728000  0.713615000  0.835633000
     0.956106000  0.927573000  0.104753000
     0.249434000  0.863491000  0.128942000
     0.431306000  0.634852000  0.124986000
     0.596244000  0.739948000  0.374908000
     0.117453000  0.029291000  0.402524000
     0.610587000  0.185561000  0.273152000
     0.460139000  0.008115000  0.471084000
     0.764721000  0.260565000  0.835285000
     0.027998000  0.134521000  0.918215000
     0.122932000  0.171092000  0.656118000
     0.697215000  0.235320000  0.554313000
     0.792514000  0.499263000  0.399819000
     0.908128000  0.395570000  0.648346000
     0.145878000  0.240224000  0.206085000
     0.541993000  0.482572000  0.401045000
     0.450011000  0.684620000  0.606616000
     0.806597000  0.736448000  0.597417000
     0.998756000  0.742263000  0.334617000
     0.261399000  0.640158000  0.824182000
     0.901735000  0.975298000  0.656187000
     0.075248000  0.785818000  0.587437000
     0.469267000  0.192855000  0.692567000

  ion indices of the primitive-cell ions
   primitive index   ion index
                 1           1
                 2           2
                 3           3
                 4           4
                 5           5
                 6           6
                 7           7
                 8           8
                 9           9
                10          10
                11          11
                12          12
                13          13
                14          14
                15          15
                16          16
                17          17
                18          18
                19          19
                20          20
                21          21
                22          22
                23          23
                24          24
                25          25
                26          26
                27          27
                28          28
                29          29
                30          30
                31          31
                32          32
                33          33
                34          34
                35          35
                36          36
                37          37
                38          38
                39          39
                40          40
                41          41
                42          42
                43          43
                44          44
                45          45
                46          46
                47          47
                48          48
                49          49
                50          50

----------------------------------------------------------------------------------------



 KPOINTS: G dimer                                 

Read explicit list of k-points.

 Found      1 k-points:

 Following reciprocal coordinates:
            Coordinates               Weight
  0.000000  0.000000  0.000000      1.000000

 Following cartesian coordinates:
            Coordinates               Weight
  0.000000  0.000000  0.000000      1.000000



--------------------------------------------------------------------------------------------------------




 Dimension of arrays:
   k-points           NKPTS =      1   k-points in BZ     NKDIM =      1   number of bands    NBANDS=    360
   number of dos      NEDOS =    301   number of ions     NIONS =     50
   non local maximal  LDIM  =      3   non local SUM 2l+1 LMDIM =     13
   total plane-waves  NPLWV = 343000
   max r-space proj   IRMAX =  16243   max aug-charges    IRDMAX= 328100
   dimension x,y,z NGX =    70 NGY =   70 NGZ =   70
   dimension x,y,z NGXF=   140 NGYF=  140 NGZF=  140
   support grid    NGXF=   280 NGYF=  280 NGZF=  280
   ions per type =              50
   NGX,Y,Z   is equivalent  to a cutoff of  10.78, 10.78, 10.78 a.u.
   NGXF,Y,Z  is equivalent  to a cutoff of  21.56, 21.56, 21.56 a.u.

 SYSTEM =  Hg50_singlepoint                        
 POSCAR =  Hg: 50 Atome emty-core PP               

 Startparameter for this run:
   NWRITE =      2    write-flag & timer
   PREC   = accura    normal or accurate (medium, high low for compatibility)
   ISTART =      1    job   : 0-new  1-cont  2-samecut
   ICHARG =      0    charge: 1-file 2-atom 10-const
   ISPIN  =      1    spin polarized calculation?
   LNONCOLLINEAR =      F non collinear calculations
   LSORBIT =      F    spin-orbit coupling
   INIWAV =      1    electr: 0-lowe 1-rand  2-diag
   LASPH  =      F    aspherical Exc in radial PAW
 Electronic Relaxation 1
   ENCUT  =  400.0 eV  29.40 Ry    5.42 a.u.  17.61 17.61 17.61*2*pi/ulx,y,z
   ENINI  =  400.0     initial cutoff
   ENAUG  =  265.4 eV  augmentation charge cutoff
   NELM   =    500;   NELMIN=  2; NELMDL=  0     # of ELM steps 
   EDIFF  = 0.1E-04   stopping-criterion for ELM
   LREAL  =      T    real-space projection
   NLSPLINE    = F    spline interpolate recip. space projectors
   LCOMPAT=      F    compatible to vasp.4.4
   GGA_COMPAT  = T    GGA compatible to vasp.4.4-vasp.4.6
   LMAXPAW     = -100 max onsite density
   LMAXMIX     =    2 max onsite mixed and CHGCAR
   VOSKOWN=      0    Vosko Wilk Nusair interpolation
   ROPT   =   -0.00025
 Ionic relaxation
   EDIFFG = 0.1E-03   stopping-criterion for IOM
   NSW    =      0    number of steps for IOM
   NBLOCK =      1;   KBLOCK =      1    inner block; outer block 
   IBRION =     -1    ionic relax: 0-MD 1-quasi-New 2-CG
   NFREE  =      0    steps in history (QN), initial steepest desc. (CG)
   ISIF   =      2    stress and relaxation
   IWAVPR =     10    prediction:  0-non 1-charg 2-wave 3-comb
   ISYM   =      1    0-nonsym 1-usesym 2-fastsym
   LCORR  =      T    Harris-Foulkes like correction to forces

   POTIM  = 0.5000    time-step for ionic-motion
   TEIN   =    0.0    initial temperature
   TEBEG  =    0.0;   TEEND  =   0.0 temperature during run
   SMASS  =  -3.00    Nose mass-parameter (am)
   estimated Nose-frequenzy (Omega)   =  0.10E-29 period in steps = 0.13E+47 mass=  -0.266E-26a.u.
   SCALEE = 1.0000    scale energy and forces
   NPACO  =    256;   APACO  = 10.0  distance and # of slots for P.C.
   PSTRESS=    0.0 pullay stress

  Mass of Ions in am
   POMASS = 200.59
  Ionic Valenz
   ZVAL   =  12.00
  Atomic Wigner-Seitz radii
   RWIGS  =  -1.00
  virtual crystal weights 
   VCA    =   1.00
   NELECT =     600.0000    total number of electrons
   NUPDOWN=      -1.0000    fix difference up-down

 DOS related values:
   EMIN   =  10.00;   EMAX   =-10.00  energy-range for DOS
   EFERMI =   0.00
   ISMEAR =     0;   SIGMA  =   0.05  broadening in eV -4-tet -1-fermi 0-gaus

 Electronic relaxation 2 (details)
   IALGO  =     38    algorithm
   LDIAG  =      T    sub-space diagonalisation (order eigenvalues)
   LSUBROT=      F    optimize rotation matrix (better conditioning)
   TURBO    =      0    0=normal 1=particle mesh
   IRESTART =      0    0=no restart 2=restart with 2 vectors
   NREBOOT  =      0    no. of reboots
   NMIN     =      0    reboot dimension
   EREF     =   0.00    reference energy to select bands
   IMIX   =      4    mixing-type and parameters
     AMIX     =   0.10;   BMIX     =  0.00
     AMIX_MAG =   0.40;   BMIX_MAG =  0.00
     AMIN     =   0.10
     WC   =   100.;   INIMIX=   1;  MIXPRE=   1;  MAXMIX= -45

 Intra band minimization:
   WEIMIN = 0.0000     energy-eigenvalue tresh-hold
   EBREAK =  0.69E-08  absolut break condition
   DEPER  =   0.30     relativ break condition  

   TIME   =   0.40     timestep for ELM

  volume/ion in A,a.u.               =      25.17       169.88
  Fermi-wavevector in a.u.,A,eV,Ry     =   1.278857  2.416690 22.252008  1.635476
  Thomas-Fermi vector in A             =   2.411376

 Write flags
   LWAVE        =      T    write WAVECAR
   LDOWNSAMPLE  =      F    k-point downsampling of WAVECAR
   LCHARG       =      T    write CHGCAR
   LVTOT        =      F    write LOCPOT, total local potential
   LVHAR        =      F    write LOCPOT, Hartree potential only
   LELF         =      F    write electronic localiz. function (ELF)
   LORBIT       =      0    0 simple, 1 ext, 2 COOP (PROOUT), +10 PAW based schemes


 Dipole corrections
   LMONO  =      F    monopole corrections only (constant potential shift)
   LDIPOL =      F    correct potential (dipole corrections)
   IDIPOL =      0    1-x, 2-y, 3-z, 4-all directions 
   EPSILON=  1.0000000 bulk dielectric constant

 Exchange correlation treatment:
   GGA     =    --    GGA type
   LEXCH   =     2    internal setting for exchange type
   LIBXC   =     F    Libxc                    
   VOSKOWN =     0    Vosko Wilk Nusair interpolation
   LHFCALC =     F    Hartree Fock is set to
   LHFONE  =     F    Hartree Fock one center treatment
   AEXX    =    0.0000 exact exchange contribution

 Linear response parameters
   LEPSILON=     F    determine dielectric tensor
   LRPA    =     F    only Hartree local field effects (RPA)
   LNABLA  =     F    use nabla operator in PAW spheres
   LVEL    =     F    velocity operator in full k-point grid
   CSHIFT  =0.1000    complex shift for real part using Kramers Kronig
   OMEGAMAX=  -1.0    maximum frequency
   DEG_THRESHOLD= 0.2000000E-02 threshold for treating states as degnerate
   RTIME   =   -0.100 relaxation time in fs
  (WPLASMAI=    0.000 imaginary part of plasma frequency in eV, 0.658/RTIME)
   DFIELD  = 0.0000000 0.0000000 0.0000000 field for delta impulse in time

  Optional k-point grid parameters
   LKPOINTS_OPT  =     F    use optional k-point grid
   KPOINTS_OPT_MODE=     1    mode for optional k-point grid

 Orbital magnetization related:
   ORBITALMAG=     F  switch on orbital magnetization
   LCHIMAG   =     F  perturbation theory with respect to B field
   DQ        =  0.001000  dq finite difference perturbation B field
   LLRAUG    =     F  two centre corrections for induced B field



--------------------------------------------------------------------------------------------------------


 Static calculation
 charge density and potential will be updated during run
 non-spin polarized calculation
 Variant of blocked Davidson
 Davidson routine will perform the subspace rotation
 perform sub-space diagonalisation
    after iterative eigenvector-optimisation
 modified Broyden-mixing scheme, WC =      100.0
 initial mixing is a Kerker type mixing with AMIX =  0.1000 and BMIX =      0.0001
 Hartree-type preconditioning will be used
 using additional bands           60
 real space projection scheme for non local part
 calculate Harris-corrections to forces   (improved forces if not selfconsistent)
 use of overlap-Matrix (Vanderbilt PP)
 Gauss-broadening in eV      SIGMA  =   0.05


--------------------------------------------------------------------------------------------------------


  energy-cutoff  :      400.00
  volume of cell :     1258.66
      direct lattice vectors                 reciprocal lattice vectors
    10.797000000  0.000000000  0.000000000     0.092618320  0.000000000  0.000000000
     0.000000000 10.797000000  0.000000000     0.000000000  0.092618320  0.000000000
     0.000000000  0.000000000 10.797000000     0.000000000  0.000000000  0.092618320

  length of vectors
    10.797000000 10.797000000 10.797000000     0.092618320  0.092618320  0.092618320



 old parameters found on file WAVECAR:
  energy-cutoff  :      200.00
  volume of cell :     1258.66
      direct lattice vectors                 reciprocal lattice vectors
    10.797000000  0.000000000  0.000000000     0.092618320  0.000000000  0.000000000
     0.000000000 10.797000000  0.000000000     0.000000000  0.092618320  0.000000000
     0.000000000  0.000000000 10.797000000     0.000000000  0.000000000  0.092618320

  length of vectors


 k-points in units of 2pi/SCALE and weight: G dimer                                 
   0.00000000  0.00000000  0.00000000       1.000

 k-points in reciprocal lattice and weights: G dimer                                 
   0.00000000  0.00000000  0.00000000       1.000

 position of ions in fractional coordinates (direct lattice) 
   0.30038700  0.97256200  0.67990100
   0.10039900  0.86661800  0.88658600
   0.42324900  0.85784400  0.90079000
   0.61355400  0.94454300  0.68085300
   0.97062700  0.65631500  0.88409500
   0.35185700  0.34241900  0.11277200
   0.32256100  0.43533000  0.68330900
   0.80125700  0.97793800  0.92463100
   0.35561300  0.27920800  0.45175400
   0.61084300  0.15115600  0.00913500
   0.66497800  0.52222700  0.66841500
   0.89504800  0.46396300  0.97109200
   0.14344200  0.60556200  0.11626200
   0.15832600  0.37085300  0.88569300
   0.52914500  0.45790500  0.88785100
   0.62384600  0.89889200  0.13545600
   0.82879500  0.23141000  0.13957100
   0.38764900  0.99248300  0.19400400
   0.29019600  0.10818400  0.93377000
   0.77819100  0.98028900  0.40100800
   0.97838300  0.43760100  0.26907000
   0.08608600  0.51554300  0.57157900
   0.64430500  0.46853800  0.14563000
   0.96627500  0.21916200  0.43302800
   0.79705900  0.66281100  0.14947100
   0.28851000  0.79993800  0.38522900
   0.28803000  0.50167000  0.36481300
   0.66572800  0.71361500  0.83563300
   0.95610600  0.92757300  0.10475300
   0.24943400  0.86349100  0.12894200
   0.43130600  0.63485200  0.12498600
   0.59624400  0.73994800  0.37490800
   0.11745300  0.02929100  0.40252400
   0.61058700  0.18556100  0.27315200
   0.46013900  0.00811500  0.47108400
   0.76472100  0.26056500  0.83528500
   0.02799800  0.13452100  0.91821500
   0.12293200  0.17109200  0.65611800
   0.69721500  0.23532000  0.55431300
   0.79251400  0.49926300  0.39981900
   0.90812800  0.39557000  0.64834600
   0.14587800  0.24022400  0.20608500
   0.54199300  0.48257200  0.40104500
   0.45001100  0.68462000  0.60661600
   0.80659700  0.73644800  0.59741700
   0.99875600  0.74226300  0.33461700
   0.26139900  0.64015800  0.82418200
   0.90173500  0.97529800  0.65618700
   0.07524800  0.78581800  0.58743700
   0.46926700  0.19285500  0.69256700

 position of ions in cartesian coordinates  (Angst):
   3.24327844 10.50075191  7.34089110
   1.08400800  9.35687455  9.57246904
   4.56981945  9.26214167  9.72582963
   6.62454254 10.19823077  7.35116984
  10.47985972  7.08623305  9.54557372
   3.79900003  3.69709794  1.21759928
   3.48269112  4.70025801  7.37768727
   8.65117183 10.55879659  9.98324091
   3.83955356  3.01460878  4.87758794
   6.59527187  1.63203133  0.09863060
   7.17976747  5.63848492  7.21687676
   9.66383326  5.00940851 10.48488032
   1.54874327  6.53825291  1.25528081
   1.70944582  4.00409984  9.56282732
   5.71317856  4.94400028  9.58612725
   6.73566526  9.70533692  1.46251843
   8.94849961  2.49853377  1.50694809
   4.18544625 10.71583895  2.09466119
   3.13324621  1.16806265 10.08191469
   8.40212823 10.58418033  4.32968338
  10.56360125  4.72477800  2.90514879
   0.92947054  5.56631777  6.17133846
   6.95656109  5.05880479  1.57236711
  10.43287118  2.36629211  4.67540332
   8.60584602  7.15637037  1.61383839
   3.11504247  8.63693059  4.15931751
   3.10985991  5.41653099  3.93888596
   7.18786522  7.70490115  9.02232950
  10.32307648 10.01500568  1.13101814
   2.69313890  9.32311233  1.39218677
   4.65681088  6.85449704  1.34947384
   6.43764647  7.98921856  4.04788168
   1.26814004  0.31625493  4.34605163
   6.59250784  2.00350212  2.94922214
   4.96812078  0.08761765  5.08629395
   8.25669264  2.81332030  9.01857214
   0.30229441  1.45242324  9.91396736
   1.32729680  1.84728032  7.08410605
   7.52783035  2.54075004  5.98491746
   8.55677366  5.39054261  4.31684574
   9.80505802  4.27096929  7.00019176
   1.57504477  2.59369853  2.22509975
   5.85189842  5.21032988  4.33008287
   4.85876877  7.39184214  6.54963295
   8.70882781  7.95142906  6.45031135
  10.78356853  8.01421361  3.61285975
   2.82232500  6.91178593  8.89869305
   9.73603280 10.53029251  7.08485104
   0.81245266  8.48447695  6.34255729
   5.06667580  2.08225544  7.47764590



--------------------------------------------------------------------------------------------------------


 k-point   1 :   0.0000 0.0000 0.0000  plane waves:   22983

 maximum and minimum number of plane-waves per node :     22983    22983

 maximum number of plane-waves:     22983
 maximum index in each direction: 
   IXMAX=   17   IYMAX=   17   IZMAX=   17
   IXMIN=  -17   IYMIN=  -17   IZMIN=  -17


 serial   3D FFT for wavefunctions
 parallel 3D FFT for charge:
    minimum data exchange during FFTs selected (reduces bandwidth)


 total amount of memory used by VASP MPI-rank0   485126. kBytes
=======================================================================

   base      :      30000. kBytes
   nonlr-proj:     103717. kBytes
   fftplans  :     202658. kBytes
   grid      :      80281. kBytes
   one-center:        405. kBytes
   wavefun   :      68065. kBytes

     INWAV:  cpu time      0.0833: real time      0.0840
 Broyden mixing: mesh for mixing (old mesh)
   NGX = 35   NGY = 35   NGZ = 35
  (NGX  =140   NGY  =140   NGZ  =140)
  gives a total of  42875 points

 charge density for first step will be calculated from the start-wavefunctions


--------------------------------------------------------------------------------------------------------


 Maximum index for non-local projection operator        15741
 Maximum index for augmentation-charges       159140 (set IRDMAX)


--------------------------------------------------------------------------------------------------------


 initial charge from wavefunction
 First call to EWALD:  gamma=   0.164
 Maximum number of real-space cells 3x 3x 3
 Maximum number of reciprocal cells 3x 3x 3

    FEWALD:  cpu time      0.0302: real time      0.0302


--------------------------------------- Iteration      1(   1)  ---------------------------------------


    POTLOK:  cpu time      0.3742: real time      0.3749
    SETDIJ:  cpu time      2.1152: real time      2.1154
     EDDAV:  cpu time     22.6747: real time     22.6854
       DOS:  cpu time      0.0007: real time      0.0014
    CHARGE:  cpu time      4.3941: real time      4.3975
    MIXING:  cpu time      0.0152: real time      0.0152
    --------------------------------------------
      LOOP:  cpu time     29.5741: real time     29.5898

 eigenvalue-minimisations  :   720
 total energy-change (2. order) :-0.5323611E+05  (-0.1827478E+01)
 number of electron     600.0000000 magnetization 
 augmentation part      363.5135848 magnetization 

 Broyden mixing:
  rms(total) = 0.55978E-01    rms(broyden)= 0.55666E-01
  rms(prec ) = 0.60304E-01
  weight for this iteration     100.00

 Free energy of the ion-electron system (eV)
  ---------------------------------------------------
  alpha Z        PSCENC =      9011.06985828
  Ewald energy   TEWEN  =    -50064.50825885
  -Hartree energ DENC   =     -8646.94714620
  -exchange      EXHF   =         0.00000000
  -V(xc)+E(xc)   XCENC  =      2372.84403311
  PAW double counting   =         0.00000000        0.00000000
  entropy T*S    EENTRO =        -0.01104995
  eigenvalues    EBANDS =     -5908.55875085
  atomic energy  EATOM  =         0.00000000
  Solvation  Ediel_sol  =         0.00000000
  ---------------------------------------------------
  free energy    TOTEN  =    -53236.11131447 eV

  energy without entropy =   -53236.10026452  energy(sigma->0) =   -53236.10578949


--------------------------------------------------------------------------------------------------------




--------------------------------------- Iteration      1(   2)  ---------------------------------------


    POTLOK:  cpu time      0.3797: real time      0.3797
    SETDIJ:  cpu time      2.5839: real time      2.5840
     EDDAV:  cpu time     29.9229: real time     29.9252
       DOS:  cpu time      0.0004: real time      0.0004
    CHARGE:  cpu time      4.3059: real time      4.3064
    MIXING:  cpu time      0.0166: real time      0.0188
    --------------------------------------------
      LOOP:  cpu time     37.2093: real time     37.2144

 eigenvalue-minimisations  :   920
 total energy-change (2. order) :-0.2313984E-02  (-0.2281714E-02)
 number of electron     600.0000000 magnetization 
 augmentation part      363.5496662 magnetization 

 Broyden mixing:
  rms(total) = 0.48611E-01    rms(broyden)= 0.48603E-01
  rms(prec ) = 0.52457E-01
  weight for this iteration     100.00

 eigenvalues of (default mixing * dielectric matrix)
  average eigenvalue GAMMA=   5.1282
  5.1282

 Free energy of the ion-electron system (eV)
  ---------------------------------------------------
  alpha Z        PSCENC =      9011.06985828
  Ewald energy   TEWEN  =    -50064.50825885
  -Hartree energ DENC   =     -8646.74731142
  -exchange      EXHF   =         0.00000000
  -V(xc)+E(xc)   XCENC  =      2372.86190321
  PAW double counting   =         0.00000000        0.00000000
  entropy T*S    EENTRO =        -0.01105533
  eigenvalues    EBANDS =     -5908.77876434
  atomic energy  EATOM  =         0.00000000
  Solvation  Ediel_sol  =         0.00000000
  ---------------------------------------------------
  free energy    TOTEN  =    -53236.11362845 eV

  energy without entropy =   -53236.10257313  energy(sigma->0) =   -53236.10810079


--------------------------------------------------------------------------------------------------------




--------------------------------------- Iteration      1(   3)  ---------------------------------------


    POTLOK:  cpu time      0.2257: real time      0.2257
    SETDIJ:  cpu time      2.4610: real time      2.4621
     EDDAV:  cpu time     25.1221: real time     25.1241
       DOS:  cpu time      0.0011: real time      0.0010
    CHARGE:  cpu time      3.7909: real time      3.7911
    MIXING:  cpu time      0.0145: real time      0.0145
    --------------------------------------------
      LOOP:  cpu time     31.6154: real time     31.6185

 eigenvalue-minimisations  :   752
 total energy-change (2. order) :-0.1462076E-02  (-0.4873576E-04)
 number of electron     600.0000000 magnetization 
 augmentation part      363.5591934 magnetization 

 Broyden mixing:
  rms(total) = 0.27079E-01    rms(broyden)= 0.27079E-01
  rms(prec ) = 0.29200E-01
  weight for this iteration     100.00

 eigenvalues of (default mixing * dielectric matrix)
  average eigenvalue GAMMA=   5.5184
  1.0462  9.9907

 Free energy of the ion-electron system (eV)
  ---------------------------------------------------
  alpha Z        PSCENC =      9011.06985828
  Ewald energy   TEWEN  =    -50064.50825885
  -Hartree energ DENC   =     -8647.25501852
  -exchange      EXHF   =         0.00000000
  -V(xc)+E(xc)   XCENC  =      2373.00799470
  PAW double counting   =         0.00000000        0.00000000
  entropy T*S    EENTRO =        -0.01110438
  eigenvalues    EBANDS =     -5908.41856176
  atomic energy  EATOM  =         0.00000000
  Solvation  Ediel_sol  =         0.00000000
  ---------------------------------------------------
  free energy    TOTEN  =    -53236.11509053 eV

  energy without entropy =   -53236.10398615  energy(sigma->0) =   -53236.10953834


--------------------------------------------------------------------------------------------------------




--------------------------------------- Iteration      1(   4)  ---------------------------------------


    POTLOK:  cpu time      0.3286: real time      0.3286
    SETDIJ:  cpu time      2.4004: real time      2.4004
     EDDAV:  cpu time     24.9503: real time     24.9526
       DOS:  cpu time      0.0004: real time      0.0004
    CHARGE:  cpu time      4.9814: real time      4.9818
    MIXING:  cpu time      0.0227: real time      0.0234
    --------------------------------------------
      LOOP:  cpu time     32.6836: real time     32.6872

 eigenvalue-minimisations  :   744
 total energy-change (2. order) :-0.8471637E-03  (-0.6668784E-04)
 number of electron     600.0000000 magnetization 
 augmentation part      363.5725343 magnetization 

 Broyden mixing:
  rms(total) = 0.26320E-02    rms(broyden)= 0.26312E-02
  rms(prec ) = 0.34138E-02
  weight for this iteration     100.00

 eigenvalues of (default mixing * dielectric matrix)
  average eigenvalue GAMMA=   4.3426
  9.9656  0.9618  2.1003

 Free energy of the ion-electron system (eV)
  ---------------------------------------------------
  alpha Z        PSCENC =      9011.06985828
  Ewald energy   TEWEN  =    -50064.50825885
  -Hartree energ DENC   =     -8647.96800441
  -exchange      EXHF   =         0.00000000
  -V(xc)+E(xc)   XCENC  =      2373.19928821
  PAW double counting   =         0.00000000        0.00000000
  entropy T*S    EENTRO =        -0.01114870
  eigenvalues    EBANDS =     -5907.89767223
  atomic energy  EATOM  =         0.00000000
  Solvation  Ediel_sol  =         0.00000000
  ---------------------------------------------------
  free energy    TOTEN  =    -53236.11593769 eV

  energy without entropy =   -53236.10478900  energy(sigma->0) =   -53236.11036335


--------------------------------------------------------------------------------------------------------




--------------------------------------- Iteration      1(   5)  ---------------------------------------


    POTLOK:  cpu time      0.3779: real time      0.3779
    SETDIJ:  cpu time      3.0894: real time      3.0898
     EDDAV:  cpu time     20.1835: real time     20.1853
       DOS:  cpu time      0.0005: real time      0.0005
    CHARGE:  cpu time      4.2635: real time      4.2639
    MIXING:  cpu time      0.0190: real time      0.0190
    --------------------------------------------
      LOOP:  cpu time     27.9337: real time     27.9363

 eigenvalue-minimisations  :   544
 total energy-change (2. order) : 0.1048632E-04  (-0.2963677E-05)
 number of electron     600.0000000 magnetization 
 augmentation part      363.5703318 magnetization 

 Broyden mixing:
  rms(total) = 0.18881E-02    rms(broyden)= 0.18881E-02
  rms(prec ) = 0.23136E-02
  weight for this iteration     100.00

 eigenvalues of (default mixing * dielectric matrix)
  average eigenvalue GAMMA=   4.3894
 10.0130  5.0577  0.9976  1.4892

 Free energy of the ion-electron system (eV)
  ---------------------------------------------------
  alpha Z        PSCENC =      9011.06985828
  Ewald energy   TEWEN  =    -50064.50825885
  -Hartree energ DENC   =     -8648.09572838
  -exchange      EXHF   =         0.00000000
  -V(xc)+E(xc)   XCENC  =      2373.20935120
  PAW double counting   =         0.00000000        0.00000000
  entropy T*S    EENTRO =        -0.01113038
  eigenvalues    EBANDS =     -5907.78001907
  atomic energy  EATOM  =         0.00000000
  Solvation  Ediel_sol  =         0.00000000
  ---------------------------------------------------
  free energy    TOTEN  =    -53236.11592721 eV

  energy without entropy =   -53236.10479683  energy(sigma->0) =   -53236.11036202


--------------------------------------------------------------------------------------------------------




--------------------------------------- Iteration      1(   6)  ---------------------------------------


    POTLOK:  cpu time      0.3470: real time      0.3470
    SETDIJ:  cpu time      2.3544: real time      2.3545
     EDDAV:  cpu time     16.9343: real time     16.9361
       DOS:  cpu time      0.0005: real time      0.0005
    --------------------------------------------
      LOOP:  cpu time     19.6361: real time     19.6380

 eigenvalue-minimisations  :   392
 total energy-change (2. order) : 0.3694862E-05  (-0.1894202E-05)
 number of electron     600.0000000 magnetization 
 augmentation part      363.5703318 magnetization 

 Free energy of the ion-electron system (eV)
  ---------------------------------------------------
  alpha Z        PSCENC =      9011.06985828
  Ewald energy   TEWEN  =    -50064.50825885
  -Hartree energ DENC   =     -8648.23891397
  -exchange      EXHF   =         0.00000000
  -V(xc)+E(xc)   XCENC  =      2373.22096685
  PAW double counting   =         0.00000000        0.00000000
  entropy T*S    EENTRO =        -0.01112705
  eigenvalues    EBANDS =     -5907.64844877
  atomic energy  EATOM  =         0.00000000
  Solvation  Ediel_sol  =         0.00000000
  ---------------------------------------------------
  free energy    TOTEN  =    -53236.11592351 eV

  energy without entropy =   -53236.10479646  energy(sigma->0) =   -53236.11035999


--------------------------------------------------------------------------------------------------------




 average (electrostatic) potential at core
  the test charge radii are     1.1066
  (the norm of the test charge is              1.0000)
       1  38.1937       2  38.1551       3  38.4110       4  38.4493       5  37.9896
       6  38.3747       7  38.1598       8  38.0747       9  38.2089      10  38.1112
      11  38.1014      12  38.1324      13  38.3362      14  38.4290      15  38.4031
      16  38.3314      17  38.2962      18  37.6747      19  38.3697      20  38.4722
      21  37.9424      22  38.0862      23  38.1652      24  38.1753      25  38.2790
      26  38.1067      27  38.0527      28  38.3909      29  38.3233      30  37.5510
      31  38.5185      32  38.3085      33  38.3593      34  38.1503      35  38.2389
      36  38.1496      37  38.1102      38  38.3555      39  38.2894      40  37.8977
      41  37.9575      42  38.3096      43  37.9213      44  38.3790      45  38.1171
      46  38.4651      47  38.3172      48  38.2902      49  38.2767      50  38.3023



 E-fermi :  -3.6400     XC(G=0): -10.7137     alpha+bet : -0.6466

 Fermi energy:        -3.6399898691

 k-point     1 :       0.0000    0.0000    0.0000
  band No.  band energies     occupation 
      1     -13.9429      2.00000
      2     -12.8633      2.00000
      3     -12.8000      2.00000
      4     -12.6891      2.00000
      5     -12.6384      2.00000
      6     -12.4502      2.00000
      7     -12.2851      2.00000
      8     -12.0681      2.00000
      9     -11.9281      2.00000
     10     -11.8929      2.00000
     11     -11.8292      2.00000
     12     -11.8048      2.00000
     13     -11.7962      2.00000
     14     -11.7835      2.00000
     15     -11.7476      2.00000
     16     -11.7390      2.00000
     17     -11.7049      2.00000
     18     -11.6940      2.00000
     19     -11.6668      2.00000
     20     -11.6387      2.00000
     21     -11.6219      2.00000
     22     -11.6151      2.00000
     23     -11.6024      2.00000
     24     -11.5788      2.00000
     25     -11.5379      2.00000
     26     -11.5215      2.00000
     27     -11.5105      2.00000
     28     -11.4953      2.00000
     29     -11.4905      2.00000
     30     -11.4653      2.00000
     31     -11.4621      2.00000
     32     -11.4206      2.00000
     33     -11.4123      2.00000
     34     -11.3742      2.00000
     35     -11.3661      2.00000
     36     -11.3580      2.00000
     37     -11.3503      2.00000
     38     -11.3258      2.00000
     39     -11.3152      2.00000
     40     -11.3057      2.00000
     41     -11.2861      2.00000
     42     -11.2795      2.00000
     43     -11.2737      2.00000
     44     -11.2508      2.00000
     45     -11.2460      2.00000
     46     -11.2279      2.00000
     47     -11.2231      2.00000
     48     -11.2048      2.00000
     49     -11.1991      2.00000
     50     -11.1815      2.00000
     51     -11.1682      2.00000
     52     -11.1628      2.00000
     53     -11.1478      2.00000
     54     -11.1334      2.00000
     55     -11.1282      2.00000
     56     -11.1182      2.00000
     57     -11.1013      2.00000
     58     -11.0921      2.00000
     59     -11.0813      2.00000
     60     -11.0721      2.00000
     61     -11.0631      2.00000
     62     -11.0477      2.00000
     63     -11.0408      2.00000
     64     -11.0296      2.00000
     65     -11.0189      2.00000
     66     -11.0056      2.00000
     67     -10.9965      2.00000
     68     -10.9809      2.00000
     69     -10.9739      2.00000
     70     -10.9508      2.00000
     71     -10.9380      2.00000
     72     -10.9324      2.00000
     73     -10.9210      2.00000
     74     -10.9165      2.00000
     75     -10.8985      2.00000
     76     -10.8849      2.00000
     77     -10.8813      2.00000
     78     -10.8687      2.00000
     79     -10.8563      2.00000
     80     -10.8405      2.00000
     81     -10.8318      2.00000
     82     -10.8260      2.00000
     83     -10.8065      2.00000
     84     -10.7993      2.00000
     85     -10.7931      2.00000
     86     -10.7775      2.00000
     87     -10.7739      2.00000
     88     -10.7612      2.00000
     89     -10.7534      2.00000
     90     -10.7472      2.00000
     91     -10.7384      2.00000
     92     -10.7248      2.00000
     93     -10.7117      2.00000
     94     -10.6988      2.00000
     95     -10.6846      2.00000
     96     -10.6782      2.00000
     97     -10.6661      2.00000
     98     -10.6605      2.00000
     99     -10.6547      2.00000
    100     -10.6395      2.00000
    101     -10.6213      2.00000
    102     -10.6098      2.00000
    103     -10.6067      2.00000
    104     -10.5889      2.00000
    105     -10.5836      2.00000
    106     -10.5711      2.00000
    107     -10.5664      2.00000
    108     -10.5527      2.00000
    109     -10.5413      2.00000
    110     -10.5313      2.00000
    111     -10.5197      2.00000
    112     -10.5147      2.00000
    113     -10.5082      2.00000
    114     -10.4999      2.00000
    115     -10.4911      2.00000
    116     -10.4756      2.00000
    117     -10.4631      2.00000
    118     -10.4587      2.00000
    119     -10.4523      2.00000
    120     -10.4431      2.00000
    121     -10.4366      2.00000
    122     -10.4253      2.00000
    123     -10.4067      2.00000
    124     -10.4034      2.00000
    125     -10.3940      2.00000
    126     -10.3839      2.00000
    127     -10.3739      2.00000
    128     -10.3581      2.00000
    129     -10.3520      2.00000
    130     -10.3453      2.00000
    131     -10.3368      2.00000
    132     -10.3290      2.00000
    133     -10.3197      2.00000
    134     -10.3161      2.00000
    135     -10.3043      2.00000
    136     -10.2853      2.00000
    137     -10.2775      2.00000
    138     -10.2759      2.00000
    139     -10.2708      2.00000
    140     -10.2522      2.00000
    141     -10.2436      2.00000
    142     -10.2361      2.00000
    143     -10.2254      2.00000
    144     -10.2112      2.00000
    145     -10.1985      2.00000
    146     -10.1966      2.00000
    147     -10.1922      2.00000
    148     -10.1805      2.00000
    149     -10.1748      2.00000
    150     -10.1601      2.00000
    151     -10.1543      2.00000
    152     -10.1473      2.00000
    153     -10.1245      2.00000
    154     -10.1192      2.00000
    155     -10.1147      2.00000
    156     -10.1038      2.00000
    157     -10.0970      2.00000
    158     -10.0849      2.00000
    159     -10.0790      2.00000
    160     -10.0705      2.00000
    161     -10.0634      2.00000
    162     -10.0502      2.00000
    163     -10.0319      2.00000
    164     -10.0265      2.00000
    165     -10.0212      2.00000
    166     -10.0116      2.00000
    167      -9.9962      2.00000
    168      -9.9949      2.00000
    169      -9.9889      2.00000
    170      -9.9796      2.00000
    171      -9.9653      2.00000
    172      -9.9620      2.00000
    173      -9.9567      2.00000
    174      -9.9540      2.00000
    175      -9.9435      2.00000
    176      -9.9292      2.00000
    177      -9.9235      2.00000
    178      -9.9196      2.00000
    179      -9.9105      2.00000
    180      -9.9010      2.00000
    181      -9.8962      2.00000
    182      -9.8881      2.00000
    183      -9.8810      2.00000
    184      -9.8690      2.00000
    185      -9.8546      2.00000
    186      -9.8514      2.00000
    187      -9.8457      2.00000
    188      -9.8398      2.00000
    189      -9.8288      2.00000
    190      -9.8172      2.00000
    191      -9.8136      2.00000
    192      -9.7988      2.00000
    193      -9.7912      2.00000
    194      -9.7891      2.00000
    195      -9.7793      2.00000
    196      -9.7734      2.00000
    197      -9.7656      2.00000
    198      -9.7547      2.00000
    199      -9.7515      2.00000
    200      -9.7395      2.00000
    201      -9.7369      2.00000
    202      -9.7269      2.00000
    203      -9.7189      2.00000
    204      -9.7154      2.00000
    205      -9.7064      2.00000
    206      -9.6952      2.00000
    207      -9.6928      2.00000
    208      -9.6816      2.00000
    209      -9.6810      2.00000
    210      -9.6697      2.00000
    211      -9.6532      2.00000
    212      -9.6500      2.00000
    213      -9.6473      2.00000
    214      -9.6337      2.00000
    215      -9.6260      2.00000
    216      -9.6210      2.00000
    217      -9.6117      2.00000
    218      -9.6043      2.00000
    219      -9.5969      2.00000
    220      -9.5840      2.00000
    221      -9.5732      2.00000
    222      -9.5637      2.00000
    223      -9.5591      2.00000
    224      -9.5538      2.00000
    225      -9.5413      2.00000
    226      -9.5280      2.00000
    227      -9.5200      2.00000
    228      -9.5138      2.00000
    229      -9.5133      2.00000
    230      -9.5059      2.00000
    231      -9.4947      2.00000
    232      -9.4829      2.00000
    233      -9.4730      2.00000
    234      -9.4619      2.00000
    235      -9.4580      2.00000
    236      -9.4431      2.00000
    237      -9.4329      2.00000
    238      -9.4231      2.00000
    239      -9.4160      2.00000
    240      -9.4045      2.00000
    241      -9.3931      2.00000
    242      -9.3889      2.00000
    243      -9.3792      2.00000
    244      -9.3613      2.00000
    245      -9.3516      2.00000
    246      -9.3355      2.00000
    247      -9.3341      2.00000
    248      -9.3262      2.00000
    249      -9.3042      2.00000
    250      -9.2952      2.00000
    251      -9.2694      2.00000
    252      -9.2599      2.00000
    253      -9.2491      2.00000
    254      -9.2319      2.00000
    255      -9.2148      2.00000
    256      -9.2026      2.00000
    257      -9.1697      2.00000
    258      -8.8065      2.00000
    259      -8.7783      2.00000
    260      -8.7268      2.00000
    261      -8.6125      2.00000
    262      -8.5600      2.00000
    263      -8.5117      2.00000
    264      -8.4317      2.00000
    265      -8.3837      2.00000
    266      -8.3028      2.00000
    267      -8.2459      2.00000
    268      -8.1716      2.00000
    269      -8.1454      2.00000
    270      -7.4924      2.00000
    271      -7.3412      2.00000
    272      -7.2376      2.00000
    273      -7.1581      2.00000
    274      -6.9537      2.00000
    275      -6.8996      2.00000
    276      -6.8112      2.00000
    277      -6.6063      2.00000
    278      -5.9285      2.00000
    279      -5.8708      2.00000
    280      -5.7475      2.00000
    281      -5.6415      2.00000
    282      -5.4737      2.00000
    283      -5.2556      2.00000
    284      -5.1172      2.00000
    285      -5.0208      2.00000
    286      -4.8487      2.00000
    287      -4.8063      2.00000
    288      -4.7180      2.00000
    289      -4.5376      2.00000
    290      -4.4705      2.00000
    291      -4.4485      2.00000
    292      -4.3596      2.00000
    293      -4.3296      2.00000
    294      -4.2822      2.00000
    295      -4.2461      2.00000
    296      -4.0450      2.00000
    297      -3.9853      2.00000
    298      -3.8914      2.00000
    299      -3.8783      2.00000
    300      -3.7037      1.92845
    301      -3.5763      0.07155
    302      -3.4815      0.00001
    303      -3.2527      0.00000
    304      -3.1563      0.00000
    305      -3.1234      0.00000
    306      -2.9995      0.00000
    307      -2.9317      0.00000
    308      -2.8391      0.00000
    309      -2.7685      0.00000
    310      -2.6412      0.00000
    311      -2.5504      0.00000
    312      -2.5294      0.00000
    313      -2.4446      0.00000
    314      -2.3963      0.00000
    315      -2.2584      0.00000
    316      -2.1617      0.00000
    317      -2.1467      0.00000
    318      -2.0805      0.00000
    319      -1.9928      0.00000
    320      -1.8790      0.00000
    321      -1.8134      0.00000
    322      -1.7429      0.00000
    323      -1.6862      0.00000
    324      -1.6231      0.00000
    325      -1.5162      0.00000
    326      -1.3753      0.00000
    327      -1.2880      0.00000
    328      -1.2688      0.00000
    329      -1.1005      0.00000
    330      -0.9807      0.00000
    331      -0.9235      0.00000
    332      -0.2792      0.00000
    333       0.2179      0.00000
    334       0.2445      0.00000
    335       0.3998      0.00000
    336       0.4707      0.00000
    337       0.5335      0.00000
    338       0.5745      0.00000
    339       0.9134      0.00000
    340       0.9707      0.00000
    341       1.0961      0.00000
    342       1.1993      0.00000
    343       1.2256      0.00000
    344       1.3409      0.00000
    345       1.4064      0.00000
    346       1.4740      0.00000
    347       1.4921      0.00000
    348       1.6402      0.00000
    349       1.6674      0.00000
    350       1.7068      0.00000
    351       1.7946      0.00000
    352       1.8644      0.00000
    353       1.9004      0.00000
    354       1.9942      0.00000
    355       2.0308      0.00000
    356       2.1393      0.00000
    357       2.1723      0.00000
    358       2.2106      0.00000
    359       2.3409      0.00000
    360       2.4997      0.00000


--------------------------------------------------------------------------------------------------------


 soft charge-density along one line, spin component           1
         0         1         2         3         4         5         6         7         8         9
 total charge-density along one line

 pseudopotential strength for first ion, spin component:           1
 -8.726  -0.001  -0.004   0.002   0.000 -30.427  -0.004  -0.012
 -0.001  -8.723   0.001   0.003   0.000  -0.004 -30.412   0.002
 -0.004   0.001  -8.725   0.003  -0.002  -0.012   0.002 -30.423
  0.002   0.003   0.003  -8.724   0.003   0.010   0.010   0.011
  0.000   0.000  -0.002   0.003  -8.719  -0.000   0.001  -0.006
-30.427  -0.004  -0.012   0.010  -0.000 *******  -0.016  -0.042
 -0.004 -30.412   0.002   0.010   0.001  -0.016 *******   0.010
 -0.012   0.002 -30.423   0.011  -0.006  -0.042   0.010 *******
  0.010   0.010   0.011 -30.420   0.010   0.041   0.032   0.043
 -0.000   0.001  -0.006   0.010 -30.397  -0.002   0.006  -0.022
 -0.012   0.003   0.022   0.004   0.021  -0.032   0.005   0.069
  0.004  -0.017   0.005  -0.035   0.007   0.014  -0.053   0.010
 -0.035   0.004  -0.001   0.018  -0.021  -0.109   0.014  -0.008
 total augmentation occupancy for first ion, spin component:           1
  3.392  -0.011  -0.005  -0.004   0.005  -0.006   0.001   0.000   0.002  -0.001   0.004  -0.000  -0.006
 -0.011   3.392   0.005   0.002  -0.001   0.001  -0.003  -0.000  -0.000   0.001  -0.002   0.002   0.002
 -0.005   0.005   3.421   0.003   0.004   0.000  -0.000  -0.008   0.001  -0.001   0.003  -0.003  -0.007
 -0.004   0.002   0.003   3.396   0.004   0.002  -0.000   0.001  -0.005   0.000   0.006  -0.011   0.005
  0.005  -0.001   0.004   0.004   3.417  -0.001   0.001  -0.001   0.000  -0.005   0.004   0.008  -0.002
 -0.006   0.001   0.000   0.002  -0.001   0.003   0.000   0.000  -0.000   0.000  -0.000  -0.000   0.002
  0.001  -0.003  -0.000  -0.000   0.001   0.000   0.001  -0.000  -0.000  -0.000   0.000   0.000  -0.000
  0.000  -0.000  -0.008   0.001  -0.001   0.000  -0.000   0.002  -0.000   0.000  -0.001   0.001   0.001
  0.002  -0.000   0.001  -0.005   0.000  -0.000  -0.000  -0.000   0.002  -0.000  -0.001   0.003  -0.001
 -0.001   0.001  -0.001   0.000  -0.005   0.000  -0.000   0.000  -0.000   0.001  -0.001  -0.001   0.001
  0.004  -0.002   0.003   0.006   0.004  -0.000   0.000  -0.001  -0.001  -0.001   0.016  -0.001  -0.000
 -0.000   0.002  -0.003  -0.011   0.008  -0.000   0.000   0.001   0.003  -0.001  -0.001   0.019  -0.002
 -0.006   0.002  -0.007   0.005  -0.002   0.002  -0.000   0.001  -0.001   0.001  -0.000  -0.002   0.019


------------------------ aborting loop because EDIFF is reached ----------------------------------------


    CHARGE:  cpu time      4.6913: real time      4.6915
    FORLOC:  cpu time      0.2951: real time      0.2951
    FORNL :  cpu time     25.5242: real time     25.5269
    STRESS:  cpu time     78.2379: real time     78.2459
    FORHAR:  cpu time      0.5980: real time      0.5980
    MIXING:  cpu time      0.0226: real time      0.0226
    OFIELD:  cpu time      0.0000: real time      0.0000

  FORCE on cell =-STRESS in cart. coord.  units (eV):
  Direction    XX          YY          ZZ          XY          YZ          ZX
  --------------------------------------------------------------------------------------
  Alpha Z  9011.06986  9011.06986  9011.06986
  Ewald  -16436.15733-16616.70692-17011.88633   438.44361  -236.57773  -566.01044
  Hartree  2983.11196  2896.90818  2768.35131   180.19928  -129.69788  -297.90850
  E(xc)   -2373.22097 -2373.22097 -2373.22097     0.00000     0.00000     0.00000
  Local   12700.44433 12964.17693 13455.27854  -593.97219   369.22964   861.30097
  n-local -2635.11199 -2634.36119 -2638.59800     4.88550    -0.42061    -0.64193
  augment -6508.37169 -6507.01674 -6491.23525   -13.33532    -1.90450     0.49492
  Kinetic  3286.20280  3299.62341  3291.12295     3.30003    -1.21106     3.95569
  Fock        0.00000     0.00000     0.00000     0.00000     0.00000     0.00000
  -------------------------------------------------------------------------------------
  Total      27.96697    40.47256    10.88212    19.52091    -0.58214     1.19071
  in kB      35.59973    51.51835    13.85207    24.84857    -0.74102     1.51568
  external pressure =       33.66 kB  Pullay stress =        0.00 kB


 VOLUME and BASIS-vectors are now :
 -----------------------------------------------------------------------------
  energy-cutoff  :      400.00
  volume of cell :     1258.66
      direct lattice vectors                 reciprocal lattice vectors
    10.797000000  0.000000000  0.000000000     0.092618320  0.000000000  0.000000000
     0.000000000 10.797000000  0.000000000     0.000000000  0.092618320  0.000000000
     0.000000000  0.000000000 10.797000000     0.000000000  0.000000000  0.092618320

  length of vectors
    10.797000000 10.797000000 10.797000000     0.092618320  0.092618320  0.092618320


 FORCES acting on ions
    electron-ion (+dipol)            ewald-force                    non-local-force                 convergence-correction
 -----------------------------------------------------------------------------------------------
   0.318E+02 0.587E+02 0.220E+02   -.331E+02 -.605E+02 -.215E+02   0.961E+00 0.145E+01 -.358E+00   0.245E-02 -.611E-02 0.738E-03
   -.205E+02 -.132E+02 0.501E+02   0.230E+02 0.142E+02 -.520E+02   -.161E+01 -.684E+00 0.145E+01   -.534E-02 -.252E-02 -.199E-02
   -.100E+03 0.226E+02 -.358E+01   0.102E+03 -.231E+02 0.394E+01   -.138E+01 0.354E+00 -.389E+00   0.286E-02 0.585E-02 -.494E-02
   -.166E+02 -.415E+02 -.509E+02   0.169E+02 0.410E+02 0.516E+02   -.261E+00 0.316E+00 -.643E+00   0.269E-02 0.291E-02 0.224E-02
   0.451E+02 -.383E+02 0.780E+02   -.444E+02 0.432E+02 -.825E+02   -.342E-01 -.286E+01 0.293E+01   -.129E-02 -.576E-03 -.220E-03
   -.701E+02 0.197E+02 0.489E+02   0.729E+02 -.188E+02 -.501E+02   -.194E+01 -.506E+00 0.663E+00   -.217E-02 -.344E-02 0.378E-02
   -.391E+02 0.526E+02 -.721E+01   0.399E+02 -.546E+02 0.630E+01   -.633E+00 0.146E+01 0.690E+00   -.219E-02 0.577E-02 -.229E-02
   0.898E+02 0.636E+02 0.485E+02   -.929E+02 -.642E+02 -.519E+02   0.219E+01 0.722E+00 0.216E+01   -.118E-02 0.279E-02 -.105E-02
   0.455E+02 0.112E+03 0.599E+02   -.464E+02 -.115E+03 -.593E+02   0.924E+00 0.225E+01 -.191E+00   0.490E-02 0.757E-02 -.883E-02
   0.179E+03 -.202E+02 0.727E+02   -.183E+03 0.193E+02 -.743E+02   0.292E+01 0.622E+00 0.126E+01   -.222E-03 -.635E-03 -.103E-02
   0.302E+02 0.881E+02 -.388E+02   -.302E+02 -.901E+02 0.376E+02   0.221E-01 0.159E+01 0.755E+00   0.396E-02 0.148E-02 0.332E-03
   0.234E+02 0.879E+02 0.587E+00   -.272E+02 -.965E+02 0.235E+01   0.237E+01 0.537E+01 -.167E+01   0.527E-02 0.638E-03 -.293E-02
   -.251E+02 0.543E+02 0.853E+01   0.246E+02 -.545E+02 -.835E+01   0.431E+00 0.245E+00 -.524E-03   -.104E-02 -.520E-02 0.598E-02
   -.279E+02 -.205E+02 -.543E+02   0.269E+02 0.216E+02 0.551E+02   0.734E+00 -.994E+00 -.692E+00   -.360E-02 -.179E-02 0.663E-02
   0.633E+02 0.543E+02 -.568E+02   -.643E+02 -.555E+02 0.579E+02   0.721E+00 0.807E+00 -.755E+00   0.198E-02 -.678E-02 0.184E-02
   -.699E+02 0.527E+02 0.660E+01   0.714E+02 -.551E+02 -.654E+01   -.103E+01 0.175E+01 -.694E-01   0.202E-02 0.605E-02 -.171E-02
   -.102E+03 0.689E+02 -.451E+02   0.105E+03 -.683E+02 0.452E+02   -.193E+01 -.134E+00 -.168E+00   -.210E-02 -.162E-02 -.603E-02
   -.826E+02 -.235E+03 -.652E+02   0.990E+02 0.253E+03 0.742E+02   -.863E+01 -.106E+02 -.506E+01   0.182E-03 0.379E-02 -.165E-02
   -.106E+03 -.101E+03 -.407E+02   0.108E+03 0.102E+03 0.414E+02   -.151E+01 -.105E+01 -.534E+00   0.195E-02 0.320E-02 0.313E-02
   -.405E+02 0.106E+02 0.977E+02   0.409E+02 -.102E+02 -.991E+02   -.429E+00 -.197E+00 0.123E+01   -.502E-02 -.234E-02 0.127E-02
   -.116E+03 0.165E+01 0.431E+02   0.120E+03 -.237E+01 -.467E+02   -.179E+01 0.268E+00 0.221E+01   0.677E-02 0.450E-02 -.452E-03
   -.779E+02 -.424E+02 0.418E+02   0.830E+02 0.455E+02 -.440E+02   -.294E+01 -.175E+01 0.125E+01   -.176E-03 0.782E-02 -.402E-02
   0.661E+02 0.727E+02 0.887E+02   -.683E+02 -.756E+02 -.895E+02   0.133E+01 0.198E+01 0.520E+00   -.320E-02 -.199E-02 -.549E-03
   0.347E+02 0.321E+02 0.373E+02   -.384E+02 -.305E+02 -.369E+02   0.260E+01 -.999E+00 -.190E+00   -.110E-02 0.148E-02 -.139E-02
   -.203E+01 -.149E+03 0.501E+02   0.404E+01 0.153E+03 -.503E+02   -.128E+01 -.247E+01 0.291E+00   0.396E-02 0.106E-02 -.204E-02
   0.119E+02 0.615E+02 -.611E+02   -.124E+02 -.630E+02 0.621E+02   0.297E+00 0.127E+01 -.606E+00   -.251E-02 -.685E-02 0.448E-02
   0.105E+03 -.455E+02 0.377E+02   -.108E+03 0.497E+02 -.389E+02   0.178E+01 -.292E+01 0.869E+00   -.590E-03 0.621E-03 -.118E-02
   0.122E+01 -.296E+02 -.175E+03   -.160E+01 0.308E+02 0.178E+03   0.216E+00 -.735E+00 -.293E+01   0.640E-02 0.494E-02 -.348E-02
   0.870E+01 -.226E+02 -.208E+03   -.744E+01 0.221E+02 0.214E+03   -.643E+00 0.296E+00 -.412E+01   -.327E-02 -.687E-03 -.527E-02
   0.162E+03 0.599E+02 0.340E+02   -.180E+03 -.746E+02 -.439E+02   0.956E+01 0.766E+01 0.572E+01   0.644E-03 0.369E-02 0.630E-02
   -.164E+02 -.298E+00 0.701E+02   0.170E+02 0.879E+00 -.699E+02   -.574E+00 -.464E+00 -.935E-01   -.357E-02 -.748E-02 0.511E-02
   -.291E+02 -.106E+03 0.428E+02   0.300E+02 0.108E+03 -.444E+02   -.642E+00 -.112E+01 0.111E+01   -.254E-02 0.157E-02 0.506E-02
   -.151E+02 0.279E+02 0.833E+02   0.179E+02 -.313E+02 -.839E+02   -.185E+01 0.236E+01 0.496E+00   0.880E-03 -.406E-02 -.344E-02
   0.638E+02 -.667E+01 -.587E+02   -.653E+02 0.687E+01 0.615E+02   0.102E+01 -.322E+00 -.208E+01   -.580E-02 -.864E-03 -.351E-02
   -.213E+02 -.235E+02 0.841E+02   0.224E+02 0.237E+02 -.849E+02   -.803E+00 0.428E-01 0.521E+00   0.449E-02 -.185E-02 0.343E-03
   0.335E+02 0.166E+02 0.368E+02   -.325E+02 -.143E+02 -.370E+02   -.690E+00 -.157E+01 0.116E+00   -.757E-03 -.457E-02 0.194E-02
   0.237E+02 -.773E+02 -.477E+02   -.257E+02 0.780E+02 0.483E+02   0.143E+01 -.656E+00 -.428E+00   -.240E-02 0.194E-02 0.823E-03
   -.159E+02 -.550E+02 0.156E+02   0.164E+02 0.569E+02 -.154E+02   -.451E+00 -.150E+01 -.737E-01   -.379E-02 -.155E-02 0.659E-02
   0.190E+02 0.583E+02 0.261E+02   -.188E+02 -.586E+02 -.265E+02   -.267E-01 0.301E+00 0.233E+00   -.241E-02 -.147E-02 0.395E-02
   -.233E+02 -.184E+02 -.333E+02   0.222E+02 0.196E+02 0.356E+02   0.373E+00 -.734E+00 -.145E+01   0.185E-02 0.106E-02 0.314E-02
   -.185E+02 0.368E+02 -.946E+02   0.157E+02 -.404E+02 0.982E+02   0.104E+01 0.197E+01 -.246E+01   -.222E-02 0.345E-02 0.180E-02
   -.823E+01 0.895E+02 0.257E+02   0.701E+01 -.916E+02 -.258E+02   0.676E+00 0.157E+01 0.359E+00   0.638E-02 0.702E-02 -.725E-02
   0.549E+02 0.868E+02 -.508E+01   -.562E+02 -.893E+02 0.577E+01   0.102E+01 0.171E+01 -.496E+00   -.445E-02 -.751E-03 -.353E-03
   0.828E+02 -.486E+02 -.293E+02   -.839E+02 0.495E+02 0.293E+02   0.828E+00 -.696E+00 -.171E+00   -.406E-02 0.229E-02 -.597E-02
   -.310E+02 0.146E+01 0.433E+02   0.314E+02 -.209E+01 -.445E+02   -.371E+00 0.498E+00 0.879E+00   0.187E-02 0.636E-03 0.298E-02
   0.315E+02 -.515E+02 0.250E+02   -.318E+02 0.517E+02 -.255E+02   0.187E+00 -.110E+00 0.207E+00   0.476E-02 -.542E-02 0.184E-02
   -.320E+02 0.248E+01 -.354E+02   0.320E+02 -.136E+01 0.359E+02   -.120E+00 -.831E+00 -.448E+00   -.423E-02 0.215E-03 -.571E-02
   0.434E+01 -.988E+02 -.746E+01   -.438E+01 0.102E+03 0.849E+01   -.323E-01 -.232E+01 -.731E+00   -.555E-02 -.345E-02 0.609E-02
   -.822E+02 0.125E+02 -.229E+02   0.855E+02 -.127E+02 0.241E+02   -.255E+01 0.220E+00 -.106E+01   0.408E-03 -.736E-02 -.299E-02
   -.204E+02 -.606E+02 -.135E+03   0.206E+02 0.615E+02 0.137E+03   -.156E+00 -.728E+00 -.111E+01   0.782E-02 -.210E-02 0.344E-02
 -----------------------------------------------------------------------------------------------
   0.642E+00 -.889E-01 0.304E+01   -.274E-12 0.711E-13 -.625E-12   -.681E+00 0.973E-01 -.305E+01   -.225E-02 0.857E-03 -.434E-03


 POSITION                                       TOTAL-FORCE (eV/Angst)
 -----------------------------------------------------------------------------------
      3.24328     10.50075      7.34089        -0.345973     -0.376875      0.169217
      1.08401      9.35687      9.57247         0.865054      0.297287     -0.456325
      4.56982      9.26214      9.72583         0.423412     -0.181043     -0.026658
      6.62454     10.19823      7.35117         0.036082     -0.177296      0.099716
     10.47986      7.08623      9.54557         0.651122      2.095559     -1.530759
      3.79900      3.69710      1.21760         0.867212      0.333092     -0.459683
      3.48269      4.70026      7.37769         0.200097     -0.500099     -0.218031
      8.65117     10.55880      9.98324        -0.890346      0.101975     -1.230924
      3.83955      3.01461      4.87759         0.071091     -0.834547      0.358802
      6.59527      1.63203      0.09863        -0.748260     -0.347716     -0.296625
      7.17977      5.63848      7.21688         0.005888     -0.430451     -0.437635
      9.66383      5.00941     10.48488        -1.409101     -3.231209      1.268247
      1.54874      6.53825      1.25528        -0.148227      0.029979      0.189529
      1.70945      4.00410      9.56283        -0.270518      0.107803      0.133536
      5.71318      4.94400      9.58613        -0.335146     -0.331135      0.391128
      6.73567      9.70534      1.46252         0.489211     -0.607807     -0.015729
      8.94850      2.49853      1.50695         0.600978      0.479353     -0.026933
      4.18545     10.71584      2.09466         7.707357      7.829844      3.916734
      3.13325      1.16806     10.08191         0.421304      0.123266      0.125007
      8.40213     10.58418      4.32968         0.008035      0.186567     -0.237183
     10.56360      4.72478      2.90515         1.325795     -0.448053     -1.328729
      0.92947      5.56632      6.17134         2.226620      1.388367     -0.920132
      6.95656      5.05880      1.57237        -0.833602     -0.924907     -0.235826
     10.43287      2.36629      4.67540        -1.118115      0.508455      0.197447
      8.60585      7.15637      1.61384         0.737983      1.239943      0.064132
      3.11504      8.63693      4.15932        -0.248776     -0.246436      0.372007
      3.10986      5.41653      3.93889        -0.652741      1.264961     -0.305172
      7.18787      7.70490      9.02233        -0.155873      0.490031      0.679677
     10.32308     10.01501      1.13102         0.612972     -0.263672      1.655161
      2.69314      9.32311      1.39219        -8.042801     -7.102175     -4.205529
      4.65681      6.85450      1.34947         0.045512      0.109172      0.046336
      6.43765      7.98922      4.04788         0.271736      0.450973     -0.493536
      1.26814      0.31625      4.34605         0.907551     -1.020289     -0.065942
      6.59251      2.00350      2.94922        -0.497364     -0.117542      0.673608
      4.96812      0.08762      5.08629         0.282314      0.176808     -0.240707
      8.25669      2.81332      9.01857         0.239683      0.814942     -0.130561
      0.30229      1.45242      9.91397        -0.568603      0.088771      0.230070
      1.32730      1.84728      7.08411         0.003850      0.346845      0.128297
      7.52783      2.54075      5.98492         0.218552      0.062214     -0.186333
      8.55677      5.39054      4.31685        -0.664292      0.482165      0.862792
      9.80506      4.27097      7.00019        -1.795167     -1.669584      1.126460
      1.57504      2.59370      2.22510        -0.539191     -0.603172      0.246746
      5.85190      5.21033      4.33008        -0.311920     -0.724398      0.195679
      4.85877      7.39184      6.54963        -0.209836      0.153532     -0.130253
      8.70883      7.95143      6.45031         0.014633     -0.133205     -0.262747
     10.78357      8.01421      3.61286        -0.081518      0.094702     -0.323266
      2.82233      6.91179      8.89869        -0.066989      0.286274      0.022985
      9.73603     10.53029      7.08485        -0.079569      0.524782      0.311730
      0.81245      8.48448      6.34256         0.719569      0.022850      0.169818
      5.06668      2.08226      7.47765         0.060317      0.181099      0.130354
 -----------------------------------------------------------------------------------
    total drift:                               -0.041722      0.009239     -0.011238


--------------------------------------------------------------------------------------------------------



  FREE ENERGIE OF THE ION-ELECTRON SYSTEM (eV)
  ---------------------------------------------------
  free  energy   TOTEN  =    -53236.11592351 eV

  energy  without entropy=   -53236.10479646  energy(sigma->0) =   -53236.11035999



--------------------------------------------------------------------------------------------------------


    POTLOK:  cpu time      2.4635: real time      2.4639


--------------------------------------------------------------------------------------------------------


 writing wavefunctions
     LOOP+:  cpu time    295.6328: real time    295.6818
    4ORBIT:  cpu time      0.0000: real time      0.0002

 total amount of memory used by VASP MPI-rank0   485126. kBytes
=======================================================================

   base      :      30000. kBytes
   nonlr-proj:     103717. kBytes
   fftplans  :     202658. kBytes
   grid      :      80281. kBytes
   one-center:        405. kBytes
   wavefun   :      68065. kBytes

  
  
 General timing and accounting informations for this job:
 ========================================================
  
                  Total CPU time used (sec):      314.735
                            User time (sec):      306.370
                          System time (sec):        8.364
                         Elapsed time (sec):      315.097
  
                   Maximum memory used (kb):      716980.
                   Average memory used (kb):          N/A
  
                          Minor page faults:      1308645
                          Major page faults:          346
                 Voluntary context switches:         1447
