    2    2  100    1
  0.2263565E+02  0.4000485E-09  0.4000485E-09  0.4000485E-09  0.5000000E-15
   1.0000000000000000E-004
  CAR 
 unknown system                          
     28    120     18

  0.1262379E-14  0.1262379E-14  0.1262379E-14  0.2962963E-03
      1        -19.822790   1.000000
      2        -19.822790   1.000000
      3        -19.822789   1.000000
      4        -19.787312   1.000000
      5        -19.787312   1.000000
      6        -19.576135   1.000000
      7        -19.576135   1.000000
      8        -19.576134   1.000000
      9        -19.563057   1.000000
     10        -19.563057   1.000000
     11         -7.781548   1.000000
     12          4.991012   0.837871
     13          4.991028   0.837765
     14          4.991028   0.837765
     15          5.026979   0.487423
     16          7.546287   0.000000
     17          7.546294   0.000000
     18          7.546294   0.000000

  0.6666667E-01  0.1265213E-14  0.1262022E-14  0.2370370E-02
      1        -19.825838   1.000000
      2        -19.825837   1.000000
      3        -19.822163   1.000000
      4        -19.783381   1.000000
      5        -19.783381   1.000000
      6        -19.581043   1.000000
      7        -19.581042   1.000000
      8        -19.576994   1.000000
      9        -19.558750   1.000000
     10        -19.558749   1.000000
     11         -7.727181   1.000000
     12          3.782801   1.000000
     13          4.880143   0.999981
     14          4.880156   0.999981
     15          5.860644   0.000000
     16          7.694091   0.000000
     17          7.694097   0.000000
     18          7.785571   0.000000

  0.1333333E+00  0.1254069E-14  0.1247288E-14  0.2370370E-02
      1        -19.831860   1.000000
      2        -19.831859   1.000000
      3        -19.820201   1.000000
      4        -19.774698   1.000000
      5        -19.774698   1.000000
      6        -19.589305   1.000000
      7        -19.589305   1.000000
      8        -19.579545   1.000000
      9        -19.552008   1.000000
     10        -19.552007   1.000000
     11         -7.565279   1.000000
     12          2.473843   1.000000
     13          4.619431   1.000000
     14          4.619443   1.000000
     15          6.025727   0.000000
     16          8.043408   0.000000
     17          8.043415   0.000000
     18          8.610306   0.000000

  0.2000000E+00  0.1252790E-14  0.1246431E-14  0.2370370E-02
      1        -19.837672   1.000000
      2        -19.837671   1.000000
      3        -19.817096   1.000000
      4        -19.765147   1.000000
      5        -19.765147   1.000000
      6        -19.597171   1.000000
      7        -19.597171   1.000000
      8        -19.583175   1.000000
      9        -19.546139   1.000000
     10        -19.546138   1.000000
     11         -7.300164   1.000000
     12          1.189103   1.000000
     13          4.319298   1.000000
     14          4.319310   1.000000
     15          5.845042   0.000000
     16          8.418546   0.000000
     17          8.418554   0.000000
     18          9.732714   0.000000

  0.2666667E+00  0.1253148E-14  0.1245574E-14  0.2370370E-02
      1        -19.842233   1.000000
      2        -19.842232   1.000000
      3        -19.813476   1.000000
      4        -19.756839   1.000000
      5        -19.756839   1.000000
      6        -19.603468   1.000000
      7        -19.603468   1.000000
      8        -19.587419   1.000000
      9        -19.541583   1.000000
     10        -19.541582   1.000000
     11         -6.941777   1.000000
     12         -0.016276   1.000000
     13          4.044240   1.000000
     14          4.044251   1.000000
     15          5.608158   0.000000
     16          8.675848   0.000000
     17          8.675856   0.000000
     18         10.931405   0.000000

  0.3333333E+00  0.1261683E-14  0.1244717E-14  0.2370370E-02
      1        -19.845136   1.000000
      2        -19.845135   1.000000
      3        -19.809945   1.000000
      4        -19.750710   1.000000
      5        -19.750709   1.000000
      6        -19.607656   1.000000
      7        -19.607656   1.000000
      8        -19.591536   1.000000
      9        -19.538441   1.000000
     10        -19.538439   1.000000
     11         -6.512668   1.000000
     12         -1.095671   1.000000
     13          3.824149   1.000000
     14          3.824161   1.000000
     15          5.403596   0.000000
     16          8.771956   0.000000
     17          8.771964   0.000000
     18         12.032839   0.000000

  0.4000000E+00  0.1258666E-14  0.1243861E-14  0.2370370E-02
      1        -19.846910   1.000000
      2        -19.846908   1.000000
      3        -19.807268   1.000000
      4        -19.747102   1.000000
      5        -19.747102   1.000000
      6        -19.610081   1.000000
      7        -19.610081   1.000000
      8        -19.594900   1.000000
      9        -19.536641   1.000000
     10        -19.536640   1.000000
     11         -6.067866   1.000000
     12         -1.980325   1.000000
     13          3.672595   1.000000
     14          3.672606   1.000000
     15          5.259591   0.000000
     16          8.768455   0.000000
     17          8.768462   0.000000
     18         12.227108   0.000000

  0.4666667E+00  0.1255701E-14  0.1243004E-14  0.2370370E-02
      1        -19.847534   1.000000
      2        -19.847532   1.000000
      3        -19.805456   1.000000
      4        -19.745514   1.000000
      5        -19.745513   1.000000
      6        -19.610883   1.000000
      7        -19.610883   1.000000
      8        -19.596657   1.000000
      9        -19.535837   1.000000
     10        -19.535835   1.000000
     11         -5.741836   1.000000
     12         -2.528024   1.000000
     13          3.595654   1.000000
     14          3.595665   1.000000
     15          5.186000   0.000003
     16          8.745122   0.000000
     17          8.745129   0.000000
     18         12.139313   0.000000

  0.6666667E-01  0.6666667E-01  0.1259516E-14  0.1777778E-02
      1        -19.826353   1.000000
      2        -19.824645   1.000000
      3        -19.824645   1.000000
      4        -19.784741   1.000000
      5        -19.779274   1.000000
      6        -19.590280   1.000000
      7        -19.573536   1.000000
      8        -19.573535   1.000000
      9        -19.565461   1.000000
     10        -19.554579   1.000000
     11         -7.708975   1.000000
     12          3.722417   1.000000
     13          4.669569   1.000000
     14          4.669579   1.000000
     15          6.266134   0.000000
     16          7.320376   0.000000
     17          7.959832   0.000000
     18          7.959837   0.000000

  0.1333333E+00  0.6666667E-01  0.1260309E-14  0.7111111E-02
      1        -19.832226   1.000000
      2        -19.828431   1.000000
      3        -19.823291   1.000000
      4        -19.779224   1.000000
      5        -19.770304   1.000000
      6        -19.600582   1.000000
      7        -19.578544   1.000000
      8        -19.573101   1.000000
      9        -19.560814   1.000000
     10        -19.549140   1.000000
     11         -7.582663   1.000000
     12          2.740699   1.000000
     13          4.362724   1.000000
     14          4.449201   1.000000
     15          6.616319   0.000000
     16          7.339492   0.000000
     17          8.382080   0.000000
     18          8.578134   0.000000

  0.2000000E+00  0.6666667E-01  0.1245574E-14  0.7111111E-02
      1        -19.839114   1.000000
      2        -19.833923   1.000000
      3        -19.819629   1.000000
      4        -19.770691   1.000000
      5        -19.760064   1.000000
      6        -19.609870   1.000000
      7        -19.586897   1.000000
      8        -19.576092   1.000000
      9        -19.553680   1.000000
     10        -19.543175   1.000000
     11         -7.351328   1.000000
     12          1.534996   1.000000
     13          4.053365   1.000000
     14          4.161260   1.000000
     15          6.500880   0.000000
     16          7.715658   0.000000
     17          8.805198   0.000000
     18          9.489555   0.000000

  0.2666667E+00  0.6666667E-01  0.1258595E-14  0.7111111E-02
      1        -19.844841   1.000000
      2        -19.838892   1.000000
      3        -19.814751   1.000000
      4        -19.761989   1.000000
      5        -19.750951   1.000000
      6        -19.616988   1.000000
      7        -19.594486   1.000000
      8        -19.581218   1.000000
      9        -19.547547   1.000000
     10        -19.537963   1.000000
     11         -7.022536   1.000000
     12          0.340406   1.000000
     13          3.790904   1.000000
     14          3.835636   1.000000
     15          6.264925   0.000000
     16          8.134228   0.000000
     17          9.091081   0.000000
     18         10.386665   0.000000

  0.3333333E+00  0.6666667E-01  0.1271616E-14  0.7111111E-02
      1        -19.848966   1.000000
      2        -19.842740   1.000000
      3        -19.809514   1.000000
      4        -19.754646   1.000000
      5        -19.744477   1.000000
      6        -19.620957   1.000000
      7        -19.600968   1.000000
      8        -19.587395   1.000000
      9        -19.542648   1.000000
     10        -19.533990   1.000000
     11         -6.613239   1.000000
     12         -0.764576   1.000000
     13          3.535868   1.000000
     14          3.598523   1.000000
     15          6.039316   0.000000
     16          8.404269   0.000000
     17          9.178560   0.000000
     18         11.228475   0.000000

  0.4000000E+00  0.6666667E-01  0.1243004E-14  0.7111111E-02
      1        -19.851437   1.000000
      2        -19.845619   1.000000
      3        -19.804733   1.000000
      4        -19.748855   1.000000
      5        -19.741379   1.000000
      6        -19.621282   1.000000
      7        -19.606293   1.000000
      8        -19.593566   1.000000
      9        -19.538856   1.000000
     10        -19.531559   1.000000
     11         -6.163686   1.000000
     12         -1.713053   1.000000
     13          3.292175   1.000000
     14          3.486401   1.000000
     15          5.863869   0.000000
     16          8.520222   0.000000
     17          9.121835   0.000000
     18         11.988583   0.000000

  0.4666667E+00  0.6666667E-01  0.1242147E-14  0.7111111E-02
      1        -19.852433   1.000000
      2        -19.847563   1.000000
      3        -19.801046   1.000000
      4        -19.744537   1.000000
      5        -19.741405   1.000000
      6        -19.618493   1.000000
      7        -19.610906   1.000000
      8        -19.598689   1.000000
      9        -19.535980   1.000000
     10        -19.530790   1.000000
     11         -5.775104   1.000000
     12         -2.390421   1.000000
     13          3.118879   1.000000
     14          3.457841   1.000000
     15          5.753966   0.000000
     16          8.579401   0.000000
     17          9.013463   0.000000
     18         12.309307   0.000000

 -0.4666667E+00  0.6666667E-01  0.1226386E-14  0.7111111E-02
      1        -19.852048   1.000000
      2        -19.848955   1.000000
      3        -19.799707   1.000000
      4        -19.743478   1.000000
      5        -19.741771   1.000000
      6        -19.614609   1.000000
      7        -19.613585   1.000000
      8        -19.601722   1.000000
      9        -19.534036   1.000000
     10        -19.531580   1.000000
     11         -5.648618   1.000000
     12         -2.589221   1.000000
     13          3.024035   1.000000
     14          3.511920   1.000000
     15          5.715722   0.000000
     16          8.653327   0.000000
     17          8.913098   0.000000
     18         12.363100   0.000000

 -0.4000000E+00  0.6666667E-01  0.1281040E-14  0.7111111E-02
      1        -19.850406   1.000000
      2        -19.849486   1.000000
      3        -19.800974   1.000000
      4        -19.746903   1.000000
      5        -19.740682   1.000000
      6        -19.617018   1.000000
      7        -19.609318   1.000000
      8        -19.600411   1.000000
      9        -19.533971   1.000000
     10        -19.533060   1.000000
     11         -5.887877   1.000000
     12         -2.204458   1.000000
     13          3.012984   1.000000
     14          3.644487   1.000000
     15          5.750591   0.000000
     16          8.760784   0.000000
     17          8.835668   0.000000
     18         12.359507   0.000000

 -0.3333333E+00  0.6666667E-01  0.1280183E-14  0.7111111E-02
      1        -19.848888   1.000000
      2        -19.847607   1.000000
      3        -19.804632   1.000000
      4        -19.751368   1.000000
      5        -19.742303   1.000000
      6        -19.617354   1.000000
      7        -19.607284   1.000000
      8        -19.593974   1.000000
      9        -19.537802   1.000000
     10        -19.533421   1.000000
     11         -6.314487   1.000000
     12         -1.417766   1.000000
     13          3.089505   1.000000
     14          3.848031   1.000000
     15          5.856112   0.000000
     16          8.753266   0.000000
     17          8.870088   0.000000
     18         11.987101   0.000000

 -0.2666667E+00  0.6666667E-01  0.1251571E-14  0.7111111E-02
      1        -19.846886   1.000000
      2        -19.843544   1.000000
      3        -19.809495   1.000000
      4        -19.757112   1.000000
      5        -19.747225   1.000000
      6        -19.614591   1.000000
      7        -19.604378   1.000000
      8        -19.585852   1.000000
      9        -19.543082   1.000000
     10        -19.535260   1.000000
     11         -6.757600   1.000000
     12         -0.409073   1.000000
     13          3.256137   1.000000
     14          4.109916   1.000000
     15          6.023393   0.000000
     16          8.601201   0.000000
     17          8.885703   0.000000
     18         11.081291   0.000000

 -0.2000000E+00  0.6666667E-01  0.1250714E-14  0.7111111E-02
      1        -19.843197   1.000000
      2        -19.838190   1.000000
      3        -19.814875   1.000000
      4        -19.764431   1.000000
      5        -19.755305   1.000000
      6        -19.608768   1.000000
      7        -19.599625   1.000000
      8        -19.578036   1.000000
      9        -19.549731   1.000000
     10        -19.538825   1.000000
     11         -7.142761   1.000000
     12          0.727893   1.000000
     13          3.514776   1.000000
     14          4.407290   1.000000
     15          6.227116   0.000000
     16          8.326195   0.000000
     17          8.659642   0.000000
     18         10.158440   0.000000

 -0.1333333E+00  0.6666667E-01  0.1263735E-14  0.7111111E-02
      1        -19.837832   1.000000
      2        -19.831985   1.000000
      3        -19.819676   1.000000
      4        -19.772675   1.000000
      5        -19.765378   1.000000
      6        -19.600530   1.000000
      7        -19.593124   1.000000
      8        -19.571688   1.000000
      9        -19.557228   1.000000
     10        -19.544096   1.000000
     11         -7.440133   1.000000
     12          1.920116   1.000000
     13          3.870523   1.000000
     14          4.695066   1.000000
     15          6.388724   0.000000
     16          7.976192   0.000000
     17          8.182613   0.000000
     18          9.298570   0.000000

 -0.6666667E-01  0.6666667E-01  0.1235123E-14  0.3555556E-02
      1        -19.831332   1.000000
      2        -19.826468   1.000000
      3        -19.822563   1.000000
      4        -19.780176   1.000000
      5        -19.775650   1.000000
      6        -19.590876   1.000000
      7        -19.585711   1.000000
      8        -19.570910   1.000000
      9        -19.561459   1.000000
     10        -19.550884   1.000000
     11         -7.636866   1.000000
     12          3.037952   1.000000
     13          4.348720   1.000000
     14          4.887509   0.999954
     15          6.276093   0.000000
     16          7.709064   0.000000
     17          7.784476   0.000000
     18          8.454388   0.000000

  0.1333333E+00  0.1333333E+00  0.1256653E-14  0.1777778E-02
      1        -19.831003   1.000000
      2        -19.829428   1.000000
      3        -19.829427   1.000000
      4        -19.777179   1.000000
      5        -19.760898   1.000000
      6        -19.613764   1.000000
      7        -19.572398   1.000000
      8        -19.566422   1.000000
      9        -19.566421   1.000000
     10        -19.547541   1.000000
     11         -7.491874   1.000000
     12          2.447290   1.000000
     13          4.033464   1.000000
     14          4.033472   1.000000
     15          6.833256   0.000000
     16          7.360060   0.000000
     17          8.868852   0.000000
     18          8.868859   0.000000

  0.2000000E+00  0.1333333E+00  0.1265534E-14  0.7111111E-02
      1        -19.838243   1.000000
      2        -19.833474   1.000000
      3        -19.825754   1.000000
      4        -19.770422   1.000000
      5        -19.749896   1.000000
      6        -19.625875   1.000000
      7        -19.580819   1.000000
      8        -19.565631   1.000000
      9        -19.558718   1.000000
     10        -19.543775   1.000000
     11         -7.294999   1.000000
     12          1.600047   1.000000
     13          3.705098   1.000000
     14          3.714829   1.000000
     15          6.791631   0.000000
     16          7.559126   0.000000
     17          9.364027   0.000000
     18          9.500162   0.000000

  0.2666667E+00  0.1333333E+00  0.1243861E-14  0.7111111E-02
      1        -19.845905   1.000000
      2        -19.838204   1.000000
      3        -19.818995   1.000000
      4        -19.761882   1.000000
      5        -19.739617   1.000000
      6        -19.635605   1.000000
      7        -19.589951   1.000000
      8        -19.571069   1.000000
      9        -19.551059   1.000000
     10        -19.537343   1.000000
     11         -6.997635   1.000000
     12          0.556492   1.000000
     13          3.324241   1.000000
     14          3.451701   1.000000
     15          6.884589   0.000000
     16          7.714411   0.000000
     17          9.727426   0.000000
     18          9.912262   0.000000

  0.3333333E+00  0.1333333E+00  0.1243004E-14  0.7111111E-02
      1        -19.852401   1.000000
      2        -19.842483   1.000000
      3        -19.810691   1.000000
      4        -19.753402   1.000000
      5        -19.732086   1.000000
      6        -19.641517   1.000000
      7        -19.598619   1.000000
      8        -19.579660   1.000000
      9        -19.544467   1.000000
     10        -19.530921   1.000000
     11         -6.612451   1.000000
     12         -0.494018   1.000000
     13          2.939673   1.000000
     14          3.266311   1.000000
     15          6.777556   0.000000
     16          8.105751   0.000000
     17          9.865215   0.000000
     18         10.169798   0.000000

  0.4000000E+00  0.1333333E+00  0.1242147E-14  0.7111111E-02
      1        -19.857198   1.000000
      2        -19.846005   1.000000
      3        -19.802237   1.000000
      4        -19.745866   1.000000
      5        -19.728745   1.000000
      6        -19.642625   1.000000
      7        -19.606715   1.000000
      8        -19.589341   1.000000
      9        -19.539032   1.000000
     10        -19.525905   1.000000
     11         -6.168742   1.000000
     12         -1.451918   1.000000
     13          2.603943   1.000000
     14          3.169019   1.000000
     15          6.617391   0.000000
     16          8.396389   0.000000
     17          9.805856   0.000000
     18         10.723766   0.000000

  0.4666667E+00  0.1333333E+00  0.1269046E-14  0.7111111E-02
      1        -19.859961   1.000000
      2        -19.848872   1.000000
      3        -19.794668   1.000000
      4        -19.739315   1.000000
      5        -19.729871   1.000000
      6        -19.638606   1.000000
      7        -19.614327   1.000000
      8        -19.598316   1.000000
      9        -19.534578   1.000000
     10        -19.522960   1.000000
     11         -5.740441   1.000000
     12         -2.211043   1.000000
     13          2.341657   1.000000
     14          3.163291   1.000000
     15          6.497172   0.000000
     16          8.520761   0.000000
     17          9.649962   0.000000
     18         11.598017   0.000000

 -0.4666667E+00  0.1333333E+00  0.1281040E-14  0.7111111E-02
      1        -19.860716   1.000000
      2        -19.851131   1.000000
      3        -19.789650   1.000000
      4        -19.734485   1.000000
      5        -19.734008   1.000000
      6        -19.630366   1.000000
      7        -19.621180   1.000000
      8        -19.605322   1.000000
      9        -19.531291   1.000000
     10        -19.522374   1.000000
     11         -5.500898   1.000000
     12         -2.583110   1.000000
     13          2.165923   1.000000
     14          3.247756   1.000000
     15          6.442599   0.000000
     16          8.610103   0.000000
     17          9.474738   0.000000
     18         12.446081   0.000000

 -0.4000000E+00  0.1333333E+00  0.1280183E-14  0.7111111E-02
      1        -19.859402   1.000000
      2        -19.852444   1.000000
      3        -19.788508   1.000000
      4        -19.740952   1.000000
      5        -19.730734   1.000000
      6        -19.626366   1.000000
      7        -19.619164   1.000000
      8        -19.609625   1.000000
      9        -19.529205   1.000000
     10        -19.524436   1.000000
     11         -5.632696   1.000000
     12         -2.380974   1.000000
     13          2.086614   1.000000
     14          3.416683   1.000000
     15          6.458356   0.000000
     16          8.734387   0.000000
     17          9.308415   0.000000
     18         12.598454   0.000000

 -0.3333333E+00  0.1333333E+00  0.1251571E-14  0.7111111E-02
      1        -19.856070   1.000000
      2        -19.852685   1.000000
      3        -19.791866   1.000000
      4        -19.747568   1.000000
      5        -19.730708   1.000000
      6        -19.628507   1.000000
      7        -19.611350   1.000000
      8        -19.605956   1.000000
      9        -19.529220   1.000000
     10        -19.528657   1.000000
     11         -6.025374   1.000000
     12         -1.719655   1.000000
     13          2.114223   1.000000
     14          3.659136   1.000000
     15          6.538614   0.000000
     16          8.892985   0.000000
     17          9.133245   0.000000
     18         11.815665   0.000000

 -0.2666667E+00  0.1333333E+00  0.1250714E-14  0.7111111E-02
      1        -19.851482   1.000000
      2        -19.850780   1.000000
      3        -19.798693   1.000000
      4        -19.753923   1.000000
      5        -19.734986   1.000000
      6        -19.626498   1.000000
      7        -19.610071   1.000000
      8        -19.592412   1.000000
      9        -19.536408   1.000000
     10        -19.529797   1.000000
     11         -6.475274   1.000000
     12         -0.820193   1.000000
     13          2.264336   1.000000
     14          3.956244   1.000000
     15          6.665447   0.000000
     16          8.895127   0.000000
     17          8.998116   0.000000
     18         10.869029   0.000000

 -0.2000000E+00  0.1333333E+00  0.1277613E-14  0.7111111E-02
      1        -19.848536   1.000000
      2        -19.844132   1.000000
      3        -19.807238   1.000000
      4        -19.760342   1.000000
      5        -19.743354   1.000000
      6        -19.620368   1.000000
      7        -19.606447   1.000000
      8        -19.579567   1.000000
      9        -19.545797   1.000000
     10        -19.532792   1.000000
     11         -6.883260   1.000000
     12          0.175754   1.000000
     13          2.567775   1.000000
     14          4.274612   1.000000
     15          6.789636   0.000000
     16          8.557876   0.000000
     17          8.807080   0.000000
     18         10.253894   0.000000

 -0.1333333E+00  0.1333333E+00  0.1249001E-14  0.3555556E-02
      1        -19.843751   1.000000
      2        -19.836886   1.000000
      3        -19.815124   1.000000
      4        -19.766903   1.000000
      5        -19.754113   1.000000
      6        -19.611217   1.000000
      7        -19.600477   1.000000
      8        -19.569127   1.000000
      9        -19.556128   1.000000
     10        -19.537531   1.000000
     11         -7.210349   1.000000
     12          1.136926   1.000000
     13          3.087269   1.000000
     14          4.553306   1.000000
     15          6.764268   0.000000
     16          8.194537   0.000000
     17          8.366341   0.000000
     18          9.906040   0.000000

  0.2000000E+00  0.2000000E+00  0.1253790E-14  0.1777778E-02
      1        -19.836050   1.000000
      2        -19.836050   1.000000
      3        -19.832040   1.000000
      4        -19.765048   1.000000
      5        -19.737565   1.000000
      6        -19.641181   1.000000
      7        -19.583625   1.000000
      8        -19.556319   1.000000
      9        -19.556318   1.000000
     10        -19.546773   1.000000
     11         -7.132248   1.000000
     12          1.196298   1.000000
     13          3.385894   1.000000
     14          3.385902   1.000000
     15          6.328794   0.000000
     16          7.905871   0.000000
     17          9.961275   0.000000
     18          9.961283   0.000000

  0.2666667E+00  0.2000000E+00  0.1256882E-14  0.7111111E-02
      1        -19.843953   1.000000
      2        -19.839984   1.000000
      3        -19.825412   1.000000
      4        -19.756913   1.000000
      5        -19.725505   1.000000
      6        -19.654290   1.000000
      7        -19.591871   1.000000
      8        -19.559776   1.000000
      9        -19.549789   1.000000
     10        -19.541117   1.000000
     11         -6.867132   1.000000
     12          0.448015   1.000000
     13          3.016392   1.000000
     14          3.112825   1.000000
     15          6.332880   0.000000
     16          7.861201   0.000000
     17         10.251661   0.000000
     18         10.453578   0.000000

  0.3333333E+00  0.2000000E+00  0.1242147E-14  0.7111111E-02
      1        -19.852466   1.000000
      2        -19.844040   1.000000
      3        -19.814909   1.000000
      4        -19.747803   1.000000
      5        -19.715838   1.000000
      6        -19.663525   1.000000
      7        -19.601350   1.000000
      8        -19.570793   1.000000
      9        -19.543001   1.000000
     10        -19.531634   1.000000
     11         -6.508961   1.000000
     12         -0.430910   1.000000
     13          2.550290   1.000000
     14          2.919644   1.000000
     15          6.548688   0.000000
     16          7.983878   0.000000
     17         10.116694   0.000000
     18         10.708506   0.000000

  0.4000000E+00  0.2000000E+00  0.1255168E-14  0.7111111E-02
      1        -19.859696   1.000000
      2        -19.847684   1.000000
      3        -19.803124   1.000000
      4        -19.738906   1.000000
      5        -19.710728   1.000000
      6        -19.667236   1.000000
      7        -19.611053   1.000000
      8        -19.583691   1.000000
      9        -19.537025   1.000000
     10        -19.523507   1.000000
     11         -6.078953   1.000000
     12         -1.309392   1.000000
     13          2.097131   1.000000
     14          2.818172   1.000000
     15          6.614778   0.000000
     16          8.520014   0.000000
     17         10.007049   0.000000
     18         10.705623   0.000000

  0.4666667E+00  0.2000000E+00  0.1240434E-14  0.7111111E-02
      1        -19.864992   1.000000
      2        -19.850831   1.000000
      3        -19.791803   1.000000
      4        -19.730650   1.000000
      5        -19.711411   1.000000
      6        -19.664484   1.000000
      7        -19.620656   1.000000
      8        -19.596075   1.000000
      9        -19.532014   1.000000
     10        -19.517623   1.000000
     11         -5.629947   1.000000
     12         -2.077761   1.000000
     13          1.720833   1.000000
     14          2.813005   1.000000
     15          6.595132   0.000000
     16          9.055882   0.000000
     17         10.310398   0.000000
     18         10.543986   0.000000

 -0.4666667E+00  0.2000000E+00  0.1224672E-14  0.7111111E-02
      1        -19.867735   1.000000
      2        -19.853428   1.000000
      3        -19.782966   1.000000
      4        -19.723416   1.000000
      5        -19.717200   1.000000
      6        -19.656183   1.000000
      7        -19.629737   1.000000
      8        -19.605783   1.000000
      9        -19.528223   1.000000
     10        -19.514628   1.000000
     11         -5.299652   1.000000
     12         -2.568761   1.000000
     13          1.448257   1.000000
     14          2.903494   1.000000
     15          6.607573   0.000000
     16          9.205326   0.000000
     17         10.322336   0.000000
     18         11.257955   0.000000

 -0.4000000E+00  0.2000000E+00  0.1279327E-14  0.7111111E-02
      1        -19.867802   1.000000
      2        -19.855138   1.000000
      3        -19.778298   1.000000
      4        -19.726793   1.000000
      5        -19.718331   1.000000
      6        -19.643640   1.000000
      7        -19.637035   1.000000
      8        -19.611526   1.000000
      9        -19.525744   1.000000
     10        -19.514945   1.000000
     11         -5.313131   1.000000
     12         -2.546649   1.000000
     13          1.296202   1.000000
     14          3.084036   1.000000
     15          6.683944   0.000000
     16          9.262910   0.000000