       N       E                     dE             d eps       ncg     rms          rms(c)
DAV:   1     0.154176169072E+03    0.15418E+03   -0.14355E+04  4378   0.388E+03
DAV:   2     0.103768451966E+02   -0.14380E+03   -0.14165E+03  4330   0.502E+02
DAV:   3    -0.851861848067E+01   -0.18895E+02   -0.18744E+02  4722   0.140E+02
DAV:   4    -0.908655166373E+01   -0.56793E+00   -0.56703E+00  4944   0.282E+01
DAV:   5    -0.909571288624E+01   -0.91612E-02   -0.91579E-02  4792   0.373E+00    0.320E+00
DAV:   6    -0.903829994075E+01    0.57413E-01   -0.23038E-02  4632   0.158E+00    0.191E+00
DAV:   7    -0.900707191125E+01    0.31228E-01   -0.56480E-02  4534   0.233E+00    0.152E-01
DAV:   8    -0.900884499403E+01   -0.17731E-02   -0.64412E-03  4988   0.117E+00    0.478E-02
DAV:   9    -0.900887165397E+01   -0.26660E-04   -0.24712E-04  5566   0.307E-01    0.175E-02
DAV:  10    -0.900889568611E+01   -0.24032E-04   -0.66443E-05  4682   0.112E-01    0.620E-03
DAV:  11    -0.900889696063E+01   -0.12745E-05   -0.90165E-06  5526   0.599E-02    0.144E-03
DAV:  12    -0.900889706471E+01   -0.10408E-06   -0.40238E-07  2842   0.107E-02
   1 F= -.90088971E+01 E0= -.90088851E+01  d E =-.900890E+01
