    2    2    1    1
  0.2370191E+02  0.4062338E-09  0.4062338E-09  0.4062338E-09  0.5000000E-15
   1.0000000000000000E-004
  CAR 
 unknown system                          
     28    141     18

  0.0000000E+00  0.0000000E+00  0.0000000E+00  0.1000000E-02
      1        -23.688667   1.000000
      2        -23.688667   1.000000
      3        -23.688664   1.000000
      4        -23.654846   1.000000
      5        -23.654846   1.000000
      6        -23.470225   1.000000
      7        -23.470225   1.000000
      8        -23.470222   1.000000
      9        -23.457499   1.000000
     10        -23.457499   1.000000
     11         -9.463875   1.000000
     12          4.244047   1.000000
     13          4.244093   1.000000
     14          4.244093   1.000000
     15          4.634760   0.000000
     16          7.439300   0.000000
     17          7.439307   0.000000
     18          7.439311   0.000000

  0.1000000E+00  0.0000000E+00  0.0000000E+00  0.8000000E-02
      1        -23.693683   1.000000
      2        -23.693681   1.000000
      3        -23.687186   1.000000
      4        -23.647915   1.000000
      5        -23.647915   1.000000
      6        -23.477595   1.000000
      7        -23.477594   1.000000
      8        -23.471747   1.000000
      9        -23.451174   1.000000
     10        -23.451173   1.000000
     11         -9.334069   1.000000
     12          2.361536   1.000000
     13          4.019995   1.000000
     14          4.020033   1.000000
     15          5.680851   0.000000
     16          7.746205   0.000000
     17          7.746220   0.000000
     18          7.961217   0.000000

  0.2000000E+00  0.0000000E+00  0.0000000E+00  0.8000000E-02
      1        -23.701655   1.000000
      2        -23.701653   1.000000
      3        -23.683378   1.000000
      4        -23.635424   1.000000
      5        -23.635424   1.000000
      6        -23.487857   1.000000
      7        -23.487856   1.000000
      8        -23.475969   1.000000
      9        -23.443371   1.000000
     10        -23.443368   1.000000
     11         -8.952027   1.000000
     12          0.248321   1.000000
     13          3.570010   1.000000
     14          3.570045   1.000000
     15          5.579014   0.000000
     16          8.328134   0.000000
     17          8.328154   0.000000
     18          9.589297   0.000000

  0.3000000E+00  0.0000000E+00  0.0000000E+00  0.8000000E-02
      1        -23.707351   1.000000
      2        -23.707348   1.000000
      3        -23.678604   1.000000
      4        -23.625047   1.000000
      5        -23.625046   1.000000
      6        -23.495258   1.000000
      7        -23.495257   1.000000
      8        -23.481199   1.000000
      9        -23.438190   1.000000
     10        -23.438186   1.000000
     11         -8.350260   1.000000
     12         -1.668883   1.000000
     13          3.155700   1.000000
     14          3.155733   1.000000
     15          5.226237   0.000000
     16          8.671290   0.000000
     17          8.671309   0.000000
     18         11.477000   0.000000

  0.4000000E+00  0.0000000E+00  0.0000000E+00  0.8000000E-02
      1        -23.710190   1.000000
      2        -23.710187   1.000000
      3        -23.674583   1.000000
      4        -23.619271   1.000000
      5        -23.619269   1.000000
      6        -23.498678   1.000000
      7        -23.498677   1.000000
      8        -23.485534   1.000000
      9        -23.435639   1.000000
     10        -23.435635   1.000000
     11         -7.644810   1.000000
     12         -3.187348   1.000000
     13          2.884002   1.000000
     14          2.884033   1.000000
     15          4.974628   0.000000
     16          8.703479   0.000000
     17          8.703500   0.000000
     18         12.259365   0.000000

  0.5000000E+00  0.0000000E+00  0.0000000E+00  0.4000000E-02
      1        -23.711027   1.000000
      2        -23.711024   1.000000
      3        -23.673050   1.000000
      4        -23.617620   1.000000
      5        -23.617618   1.000000
      6        -23.499504   1.000000
      7        -23.499502   1.000000
      8        -23.487217   1.000000
      9        -23.434957   1.000000
     10        -23.434952   1.000000
     11         -7.249550   1.000000
     12         -3.857001   1.000000
     13          2.790621   1.000000
     14          2.790652   1.000000
     15          4.887216   0.000000
     16          8.676446   0.000000
     17          8.676449   0.000000
     18         12.133535   0.000000

  0.1000000E+00  0.1000000E+00  0.0000000E+00  0.6000000E-02
      1        -23.693426   1.000000
      2        -23.692094   1.000000
      3        -23.692092   1.000000
      4        -23.649806   1.000000
      5        -23.640691   1.000000
      6        -23.491884   1.000000
      7        -23.465159   1.000000
      8        -23.465157   1.000000
      9        -23.462145   1.000000
     10        -23.446684   1.000000
     11         -9.290347   1.000000
     12          2.306745   1.000000
     13          3.630579   1.000000
     14          3.630606   1.000000
     15          6.476163   0.000000
     16          6.958157   0.000000
     17          8.264558   0.000000
     18          8.264571   0.000000

  0.2000000E+00  0.1000000E+00  0.0000000E+00  0.2400000E-01
      1        -23.702680   1.000000
      2        -23.697930   1.000000
      3        -23.687762   1.000000
      4        -23.640753   1.000000
      5        -23.627051   1.000000
      6        -23.506148   1.000000
      7        -23.475225   1.000000
      8        -23.465292   1.000000
      9        -23.452947   1.000000
     10        -23.440463   1.000000
     11         -8.990578   1.000000
     12          0.706072   1.000000
     13          3.135895   1.000000
     14          3.192488   1.000000
     15          6.660001   0.000000
     16          7.214742   0.000000
     17          8.981245   0.000000
     18          9.349457   0.000000

  0.3000000E+00  0.1000000E+00  0.0000000E+00  0.2400000E-01
      1        -23.711345   1.000000
      2        -23.704445   1.000000
      3        -23.679584   1.000000
      4        -23.629450   1.000000
      5        -23.615109   1.000000
      6        -23.515754   1.000000
      7        -23.486043   1.000000
      8        -23.472819   1.000000
      9        -23.444350   1.000000
     10        -23.433197   1.000000
     11         -8.455747   1.000000
     12         -1.140356   1.000000
     13          2.652993   1.000000
     14          2.746711   1.000000
     15          6.323838   0.000000
     16          7.937422   0.000000
     17          9.404247   0.000000
     18         10.293372   0.000000

  0.4000000E+00  0.1000000E+00  0.0000000E+00  0.2400000E-01
      1        -23.716861   1.000000
      2        -23.709211   1.000000
      3        -23.670676   1.000000
      4        -23.620045   1.000000
      5        -23.609645   1.000000
      6        -23.517585   1.000000
      7        -23.495212   1.000000
      8        -23.482838   1.000000
      9        -23.437962   1.000000
     10        -23.428155   1.000000
     11         -7.759685   1.000000
     12         -2.759107   1.000000
     13          2.174060   1.000000
     14          2.543767   1.000000
     15          6.017695   0.000000
     16          8.322487   0.000000
     17          9.373990   0.000000
     18         11.368281   0.000000

  0.5000000E+00  0.1000000E+00  0.0000000E+00  0.2400000E-01
      1        -23.718818   1.000000
      2        -23.712320   1.000000
      3        -23.664402   1.000000
      4        -23.613227   1.000000
      5        -23.611391   1.000000
      6        -23.511189   1.000000
      7        -23.503058   1.000000
      8        -23.491603   1.000000
      9        -23.433390   1.000000
     10        -23.426698   1.000000
     11         -7.182321   1.000000
     12         -3.768538   1.000000
     13          1.859109   1.000000
     14          2.549458   1.000000
     15          5.852503   0.000000
     16          8.455341   0.000000
     17          9.165892   0.000000
     18         12.441358   0.000000

 -0.4000000E+00  0.1000000E+00  0.0000000E+00  0.2400000E-01
      1        -23.717226   1.000000
      2        -23.713788   1.000000
      3        -23.663800   1.000000
      4        -23.617164   1.000000
      5        -23.609691   1.000000
      6        -23.508838   1.000000
      7        -23.499797   1.000000
      8        -23.496105   1.000000
      9        -23.430741   1.000000
     10        -23.429314   1.000000
     11         -7.327681   1.000000
     12         -3.534002   1.000000
     13          1.750628   1.000000
     14          2.756786   1.000000
     15          5.856186   0.000000
     16          8.630410   0.000000
     17          8.975640   0.000000
     18         12.542623   0.000000

 -0.3000000E+00  0.1000000E+00  0.0000000E+00  0.2400000E-01
      1        -23.712939   1.000000
      2        -23.712336   1.000000
      3        -23.669514   1.000000
      4        -23.624391   1.000000
      5        -23.612024   1.000000
      6        -23.509610   1.000000
      7        -23.497417   1.000000
      8        -23.484310   1.000000
      9        -23.435942   1.000000
     10        -23.430777   1.000000
     11         -8.002958   1.000000
     12         -2.256915   1.000000
     13          1.875199   1.000000
     14          3.133577   1.000000
     15          6.021157   0.000000
     16          8.763564   0.000000
     17          8.820808   0.000000
     18         11.414974   0.000000

 -0.2000000E+00  0.1000000E+00  0.0000000E+00  0.2400000E-01
      1        -23.708867   1.000000
      2        -23.704572   1.000000
      3        -23.678457   1.000000
      4        -23.633111   1.000000
      5        -23.621691   1.000000
      6        -23.503190   1.000000
      7        -23.492988   1.000000
      8        -23.470153   1.000000
      9        -23.446316   1.000000
     10        -23.434210   1.000000
     11         -8.659687   1.000000
     12         -0.548769   1.000000
     13          2.265060   1.000000
     14          3.605388   1.000000
     15          6.282378   0.000000
     16          8.341172   0.000000
     17          8.569693   0.000000
     18         10.185799   0.000000

 -0.1000000E+00  0.1000000E+00  0.0000000E+00  0.1200000E-01
      1        -23.701569   1.000000
      2        -23.695900   1.000000
      3        -23.685990   1.000000
      4        -23.642882   1.000000
      5        -23.635688   1.000000
      6        -23.491394   1.000000
      7        -23.484601   1.000000
      8        -23.459963   1.000000
      9        -23.458278   1.000000
     10        -23.441203   1.000000
     11         -9.119452   1.000000
     12          1.189633   1.000000
     13          3.012277   1.000000
     14          3.998705   1.000000
     15          6.283740   0.000000
     16          7.825526   0.000000
     17          7.857084   0.000000
     18          9.173319   0.000000

  0.2000000E+00  0.2000000E+00  0.0000000E+00  0.6000000E-02
      1        -23.700567   1.000000
      2        -23.700565   1.000000
      3        -23.695579   1.000000
      4        -23.635178   1.000000
      5        -23.611289   1.000000
      6        -23.526609   1.000000
      7        -23.475664   1.000000
      8        -23.452650   1.000000
      9        -23.452648   1.000000
     10        -23.443389   1.000000
     11         -8.772853   1.000000
     12          0.231775   1.000000
     13          2.612684   1.000000
     14          2.612708   1.000000
     15          6.159850   0.000000
     16          7.701826   0.000000
     17          9.901046   0.000000
     18          9.902751   0.000000

  0.3000000E+00  0.2000000E+00  0.0000000E+00  0.2400000E-01
      1        -23.711235   1.000000
      2        -23.706052   1.000000
      3        -23.685551   1.000000
      4        -23.624136   1.000000
      5        -23.595993   1.000000
      6        -23.542558   1.000000
      7        -23.487061   1.000000
      8        -23.459603   1.000000
      9        -23.444036   1.000000
     10        -23.434757   1.000000
     11         -8.311235   1.000000
     12         -1.058098   1.000000
     13          2.002619   1.000000
     14          2.206766   1.000000
     15          6.258565   0.000000
     16          7.721327   0.000000
     17         10.130695   0.000000
     18         10.586935   0.000000

  0.4000000E+00  0.2000000E+00  0.0000000E+00  0.2400000E-01
      1        -23.721453   1.000000
      2        -23.711177   1.000000
      3        -23.670199   1.000000
      4        -23.612279   1.000000
      5        -23.587580   1.000000
      6        -23.549346   1.000000
      7        -23.499822   1.000000
      8        -23.475789   1.000000
      9        -23.435976   1.000000
     10        -23.423625   1.000000
     11         -7.651689   1.000000
     12         -2.492591   1.000000
     13          1.284067   1.000000
     14          2.002952   1.000000
     15          6.423123   0.000000
     16          8.422794   0.000000
     17          9.907731   0.000000
     18         10.687831   0.000000

  0.5000000E+00  0.2000000E+00  0.0000000E+00  0.2400000E-01
      1        -23.727789   1.000000
      2        -23.715158   1.000000
      3        -23.656009   1.000000
      4        -23.601630   1.000000
      5        -23.590241   1.000000
      6        -23.543957   1.000000
      7        -23.512352   1.000000
      8        -23.491155   1.000000
      9        -23.429818   1.000000
     10        -23.416857   1.000000
     11         -6.969855   1.000000
     12         -3.635574   1.000000
     13          0.724339   1.000000
     14          2.027696   1.000000
     15          6.403309   0.000000
     16          9.077426   0.000000
     17         10.419709   0.000000
     18         10.673531   0.000000

 -0.4000000E+00  0.2000000E+00  0.0000000E+00  0.2400000E-01
      1        -23.728876   1.000000
      2        -23.717599   1.000000
      3        -23.648554   1.000000
      4        -23.601730   1.000000
      5        -23.594177   1.000000
      6        -23.528885   1.000000
      7        -23.522587   1.000000
      8        -23.499980   1.000000
      9        -23.426012   1.000000
     10        -23.416189   1.000000
     11         -6.840733   1.000000
     12         -3.820536   1.000000
     13          0.432639   1.000000
     14          2.274547   1.000000
     15          6.495969   0.000000
     16          9.165634   0.000000
     17         10.068551   0.000000
     18         12.364616   0.000000

 -0.3000000E+00  0.2000000E+00  0.0000000E+00  0.2400000E-01
      1        -23.724326   1.000000
      2        -23.717787   1.000000
      3        -23.651538   1.000000
      4        -23.615935   1.000000
      5        -23.594789   1.000000
      6        -23.525251   1.000000
      7        -23.509722   1.000000
      8        -23.499567   1.000000
      9        -23.425236   1.000000
     10        -23.422317   1.000000
     11         -7.440082   1.000000
     12         -2.884468   1.000000
     13          0.487626   1.000000
     14          2.704161   1.000000
     15          6.709816   0.000000
     16          9.322944   0.000000
     17          9.631141   0.000000
     18         11.084388   0.000000

 -0.2000000E+00  0.2000000E+00  0.0000000E+00  0.1200000E-01
      1        -23.715040   1.000000
      2        -23.714881   1.000000
      3        -23.664549   1.000000
      4        -23.626137   1.000000
      5        -23.605870   1.000000
      6        -23.517266   1.000000
      7        -23.500896   1.000000
      8        -23.482958   1.000000
      9        -23.434398   1.000000
     10        -23.427944   1.000000
     11         -8.133377   1.000000
     12         -1.617965   1.000000
     13          1.042347   1.000000
     14          3.219246   1.000000
     15          6.839147   0.000000
     16          8.960331   0.000000
     17          9.091308   0.000000
     18         10.100264   0.000000

  0.3000000E+00  0.3000000E+00  0.0000000E+00  0.6000000E-02
      1        -23.710158   1.000000
      2        -23.710156   1.000000
      3        -23.687831   1.000000
      4        -23.612766   1.000000
      5        -23.575726   1.000000
      6        -23.565966   1.000000
      7        -23.496895   1.000000
      8        -23.452675   1.000000
      9        -23.438157   1.000000
     10        -23.438155   1.000000
     11         -7.921564   1.000000
     12         -1.759406   1.000000
     13          1.765000   1.000000
     14          1.765022   1.000000
     15          5.577114   0.000000
     16          7.153160   0.000000
     17         11.736834   0.000000
     18         11.781451   0.000000

  0.4000000E+00  0.3000000E+00  0.0000000E+00  0.2400000E-01
      1        -23.719133   1.000000
      2        -23.714378   1.000000
      3        -23.673304   1.000000
      4        -23.599479   1.000000
      5        -23.581450   1.000000
      6        -23.560587   1.000000
      7        -23.510324   1.000000
      8        -23.469471   1.000000
      9        -23.431494   1.000000
     10        -23.426105   1.000000
     11         -7.313661   1.000000
     12         -2.818593   1.000000
     13          1.136720   1.000000
     14          1.522648   1.000000
     15          5.799950   0.000000
     16          7.041475   0.000000
     17         11.662314   0.000000
     18         12.266924   0.000000

  0.5000000E+00  0.3000000E+00  0.0000000E+00  0.2400000E-01
      1        -23.729151   1.000000
      2        -23.717795   1.000000
      3        -23.653638   1.000000
      4        -23.586311   1.000000
      5        -23.584464   1.000000
      6        -23.556070   1.000000
      7        -23.524913   1.000000
      8        -23.490226   1.000000
      9        -23.426164   1.000000
     10        -23.414830   1.000000
     11         -6.590471   1.000000
     12         -3.834995   1.000000
     13          0.321665   1.000000
     14          1.515452   1.000000
     15          6.005303   0.000000
     16          8.189374   0.000000
     17         11.286215   0.000000
     18         12.089785   0.000000

 -0.4000000E+00  0.3000000E+00  0.0000000E+00  0.2400000E-01
      1        -23.734435   1.000000
      2        -23.719923   1.000000
      3        -23.641828   1.000000
      4        -23.576214   1.000000
      5        -23.574075   1.000000
      6        -23.564349   1.000000
      7        -23.537578   1.000000
      8        -23.501973   1.000000
      9        -23.422989   1.000000
     10        -23.409383   1.000000
     11         -6.226613   1.000000
     12         -4.267737   1.000000
     13         -0.219383   1.000000
     14          1.743001   1.000000
     15          6.186242   0.000000
     16         10.070197   0.000000
     17         11.072446   0.000000
     18         11.605328   0.000000

 -0.3000000E+00  0.3000000E+00  0.0000000E+00  0.1200000E-01
      1        -23.732817   1.000000
      2        -23.720163   1.000000
      3        -23.641226   1.000000
      4        -23.595656   1.000000
      5        -23.579177   1.000000
      6        -23.539161   1.000000
      7        -23.537864   1.000000
      8        -23.503513   1.000000
      9        -23.422605   1.000000
     10        -23.411932   1.000000
     11         -6.738716   1.000000
     12         -3.664718   1.000000
     13         -0.234632   1.000000
     14          2.170449   1.000000
     15          6.507289   0.000000
     16         10.768597   0.000000
     17         10.836036   0.000000
     18         11.015922   0.000000

  0.4000000E+00  0.4000000E+00  0.0000000E+00  0.6000000E-02
      1        -23.717281   1.000000
      2        -23.717279   1.000000
      3        -23.669359   1.000000
      4        -23.605500   1.000000
      5        -23.584757   1.000000
      6        -23.538385   1.000000
      7        -23.523890   1.000000
      8        -23.473359   1.000000
      9        -23.426926   1.000000
     10        -23.426924   1.000000
     11         -6.756100   1.000000
     12         -3.624141   1.000000
     13          1.228009   1.000000
     14          1.228029   1.000000
     15          5.361169   0.000000
     16          6.195029   0.000000
     17         13.553683   0.000000
     18         13.608265   0.000000

  0.5000000E+00  0.4000000E+00  0.0000000E+00  0.2400000E-01
      1        -23.723919   1.000000
      2        -23.719377   1.000000
      3        -23.651030   1.000000
      4        -23.617780   1.000000
      5        -23.570001   1.000000
      6        -23.539068   1.000000
      7        -23.525728   1.000000
      8        -23.492485   1.000000
      9        -23.423641   1.000000
     10        -23.419286   1.000000
     11         -6.031456   1.000000
     12         -4.500152   1.000000
     13          0.695352   1.000000
     14          1.167059   1.000000
     15          5.641140   0.000000
     16          6.401649   0.000000
     17         13.457457   0.000000
     18         13.796993   0.000000

 -0.4000000E+00  0.4000000E+00  0.0000000E+00  0.1200000E-01
      1        -23.731974   1.000000
      2        -23.720386   1.000000
      3        -23.639821   1.000000
      4        -23.603546   1.000000
      5        -23.560740   1.000000
      6        -23.550160   1.000000
      7        -23.538096   1.000000
      8        -23.503671   1.000000
      9        -23.422218   1.000000
     10        -23.411206   1.000000
     11         -5.618428   1.000000
     12         -4.897459   1.000000
     13         -0.014815   1.000000
     14          1.347450   1.000000
     15          5.836716   0.000000
     16          7.992434   0.000000
     17         12.866330   0.000000
     18         13.218873   0.000000

  0.5000000E+00  0.5000000E+00  0.0000000E+00  0.3000000E-02
      1        -23.719887   1.000000
      2        -23.719885   1.000000
      3        -23.641100   1.000000
      4        -23.641096   1.000000
      5        -23.554146   1.000000
      6        -23.554142   1.000000
      7        -23.502960   1.000000
      8        -23.502956   1.000000
      9        -23.422721   1.000000
     10        -23.422718   1.000000
     11         -5.308343   1.000000
     12         -5.308337   1.000000
     13          1.045356   1.000000
     14          1.045376   1.000000
     15          5.563781   0.000000
     16          5.563792   0.000000
     17         14.655844   0.000000
     18         14.660175   0.000000

  0.3000000E+00  0.2000000E+00  0.1000000E+00  0.2400000E-01
      1        -23.709067   1.000000
      2        -23.704983   1.000000
      3        -23.681748   1.000000
      4        -23.632195   1.000000
      5        -23.612397   1.000000
      6        -23.521527   1.000000
      7        -23.483762   1.000000
      8        -23.465675   1.000000
      9        -23.447167   1.000000
     10        -23.434442   1.000000
     11         -8.610975   1.000000
     12         -0.434093   1.000000
     13          2.007708   1.000000
     14          3.075401   1.000000
     15          7.092731   0.000000
     16          7.298916   0.000000
     17          9.613703   0.000000
     18          9.778020   0.000000

  0.4000000E+00  0.2000000E+00  0.1000000E+00  0.4800000E-01
      1        -23.716998   1.000000
      2        -23.712449   1.000000
      3        -23.668767   1.000000
      4        -23.622075   1.000000
      5        -23.600235   1.000000
      6        -23.531396   1.000000
      7        -23.493274   1.000000
      8        -23.480909   1.000000
      9        -23.435427   1.000000
     10        -23.427660   1.000000
     11         -8.011348   1.000000
     12         -1.895948   1.000000
     13          1.295014   1.000000
     14          2.679607   1.000000
     15          7.017822   0.000000
     16          8.008743   0.000000
     17          9.746777   0.000000
     18         10.267976   0.000000

  0.5000000E+00  0.2000000E+00  0.1000000E+00  0.4800000E-01
      1        -23.723795   1.000000
      2        -23.715815   1.000000
      3        -23.656809   1.000000
      4        -23.612362   1.000000
      5        -23.596062   1.000000
      6        -23.532012   1.000000
      7        -23.503357   1.000000
      8        -23.495186   1.000000
      9        -23.429227   1.000000
     10        -23.421456   1.000000
     11         -7.301206   1.000000
     12         -3.240818   1.000000
     13          0.952136   1.000000
     14          2.319692   1.000000
     15          6.826108   0.000000
     16          8.309953   0.000000
     17         10.037591   0.000000
     18         11.140573   0.000000

 -0.4000000E+00  0.2000000E+00  0.1000000E+00  0.2400000E-01
      1        -23.726308   1.000000
      2        -23.716777   1.000000
      3        -23.652009   1.000000
      4        -23.605826   1.000000
      5        -23.598299   1.000000
      6        -23.527075   1.000000
      7        -23.513445   1.000000
      8        -23.498756   1.000000
      9        -23.427642   1.000000
     10        -23.418757   1.000000
     11         -6.894261   1.000000
     12         -3.874553   1.000000
     13          0.852131   1.000000
     14          2.181227   1.000000
     15          6.754358   0.000000
     16          8.294809   0.000000
     17         10.087138   0.000000
     18         12.869064   0.000000

  0.4000000E+00  0.3000000E+00  0.1000000E+00  0.2400000E-01
      1        -23.715920   1.000000
      2        -23.714975   1.000000
      3        -23.673890   1.000000
      4        -23.612535   1.000000
      5        -23.580376   1.000000
      6        -23.558650   1.000000
      7        -23.498599   1.000000
      8        -23.470987   1.000000
      9        -23.432721   1.000000
     10        -23.429063   1.000000
     11         -7.778882   1.000000
     12         -2.086808   1.000000
     13          1.208079   1.000000
     14          1.927879   1.000000
     15          6.507661   0.000000
     16          7.616773   0.000000
     17         10.067611   0.000000
     18         11.605905   0.000000

  0.5000000E+00  0.3000000E+00  0.1000000E+00  0.4800000E-01
      1        -23.725894   1.000000
      2        -23.719025   1.000000
      3        -23.655496   1.000000
      4        -23.600543   1.000000
      5        -23.573273   1.000000
      6        -23.563889   1.000000
      7        -23.512394   1.000000
      8        -23.489922   1.000000
      9        -23.425776   1.000000
     10        -23.418764   1.000000
     11         -7.078668   1.000000
     12         -3.217993   1.000000
     13          0.543109   1.000000
     14          1.607843   1.000000
     15          6.879042   0.000000
     16          8.401375   0.000000
     17          9.674320   0.000000
     18         12.011855   0.000000

 -0.4000000E+00  0.3000000E+00  0.1000000E+00  0.4800000E-01
      1        -23.731979   1.000000
      2        -23.721086   1.000000
      3        -23.641778   1.000000
      4        -23.591095   1.000000
      5        -23.575599   1.000000
      6        -23.558107   1.000000
      7        -23.526382   1.000000
      8        -23.502751   1.000000
      9        -23.422613   1.000000
     10        -23.412107   1.000000
     11         -6.481525   1.000000
     12         -4.032571   1.000000
     13          0.104429   1.000000
     14          1.550033   1.000000
     15          7.001368   0.000000
     16          9.126400   0.000000
     17         10.354705   0.000000
     18         11.785675   0.000000

 -0.3000000E+00  0.3000000E+00  0.1000000E+00  0.4800000E-01
      1        -23.731610   1.000000
      2        -23.721538   1.000000
      3        -23.640098   1.000000
      4        -23.596978   1.000000
      5        -23.577604   1.000000
      6        -23.550276   1.000000
      7        -23.526114   1.000000
      8        -23.504964   1.000000
      9        -23.421747   1.000000
     10        -23.412933   1.000000
     11         -6.669862   1.000000
     12         -3.786176   1.000000
     13         -0.016436   1.000000
     14          1.791686   1.000000
     15          7.238509   0.000000
     16          8.967626   0.000000
     17         10.623913   0.000000
     18         11.804249   0.000000

 -0.2000000E+00  0.3000000E+00  0.1000000E+00  0.2400000E-01
      1        -23.724921   1.000000
      2        -23.719736   1.000000
      3        -23.651151   1.000000
      4        -23.611691   1.000000
      5        -23.585080   1.000000
      6        -23.544083   1.000000
      7        -23.504445   1.000000
      8        -23.500030   1.000000
      9        -23.423567   1.000000
     10        -23.421381   1.000000
     11         -7.366937   1.000000
     12         -2.830132   1.000000
     13          0.331005   1.000000
     14          2.239571   1.000000
     15          7.498850   0.000000
     16          8.501455   0.000000
     17          9.571398   0.000000
     18         11.273119   0.000000

  0.5000000E+00  0.4000000E+00  0.1000000E+00  0.2400000E-01
      1        -23.722132   1.000000
      2        -23.721909   1.000000
      3        -23.656669   1.000000
      4        -23.596121   1.000000
      5        -23.585506   1.000000
      6        -23.545889   1.000000
      7        -23.524752   1.000000
      8        -23.486574   1.000000
      9        -23.422047   1.000000
     10        -23.421943   1.000000
     11         -6.650886   1.000000
     12         -3.723647   1.000000
     13          0.759431   1.000000
     14          1.106613   1.000000
     15          6.248505   0.000000
     16          6.893253   0.000000