       N       E                     dE             d eps       ncg     rms          ort
DAV:   1    -0.763292868489E+03   -0.76329E+03   -0.14880E+04  2538   0.458E+03
DAV:   2    -0.919437828686E+03   -0.15614E+03   -0.15333E+03  2538   0.555E+02
DAV:   3    -0.939749009194E+03   -0.20311E+02   -0.20132E+02  2538   0.147E+02
DAV:   4    -0.940377674380E+03   -0.62867E+00   -0.62697E+00  2538   0.281E+01
DAV:   5    -0.108321332658E+02    0.92955E+03   -0.68590E+00  2538   0.470E+01
SDA:   6    -0.106216377089E+02    0.21050E+00   -0.68590E+00  2538   0.432E+00 0.000E+00
CGA:   7    -0.106799368534E+02   -0.58299E-01   -0.58177E-01  2538   0.101E+00 0.234E-03
CGA:   8    -0.107029692938E+02   -0.23032E-01   -0.23030E-01  2538   0.142E-01 0.129E-03
CGA:   9    -0.107070565460E+02   -0.40873E-02   -0.40873E-02  2538   0.858E-02-0.274E-05
CGA:  10    -0.107089641163E+02   -0.19076E-02   -0.19075E-02  2538   0.389E-02 0.690E-05
CGA:  11    -0.107100578671E+02   -0.10938E-02   -0.10941E-02  2538   0.166E-02-0.452E-05
CGA:  12    -0.107104718429E+02   -0.41398E-03   -0.41395E-03  2538   0.538E-03 0.121E-05
CGA:  13    -0.107105981195E+02   -0.12628E-03   -0.12616E-03  2538   0.121E-03 0.498E-05
CGA:  14    -0.107106249040E+02   -0.26785E-04   -0.26784E-04  2538   0.353E-04 0.131E-06
CGA:  15    -0.107106324136E+02   -0.75096E-05   -0.75091E-05  2538   0.947E-05 0.458E-06
CGA:  16    -0.107106347802E+02   -0.23666E-05   -0.23753E-05  2538   0.286E-05-0.276E-06
CGA:  17    -0.107106354147E+02   -0.63452E-06   -0.63362E-06  2538   0.717E-06 0.620E-07
   1 F= -.10710635E+02 E0= -.10710635E+02  d E =-.224280E-10
