    2    2    1    1
  0.2040120E+02  0.3864265E-09  0.3864265E-09  0.3864265E-09  0.5000000E-15
   1.0000000000000000E-004
  CAR 
 unknown system                          
      8    897      8

  0.1262379E-14  0.1262379E-14  0.1262379E-14  0.3051758E-04
      1         -6.192267   1.000000
      2          5.648503   1.000000
      3          5.648518   1.000000
      4          5.648518   1.000000
      5          8.208663   0.000000
      6          8.208679   0.000000
      7          8.208679   0.000000
      8          8.794614   0.000000

  0.3125000E-01  0.1260306E-14  0.1261854E-14  0.2441406E-03
      1         -6.179640   1.000000
      2          5.498628   1.000000
      3          5.626776   1.000000
      4          5.626790   1.000000
      5          8.240431   0.000000
      6          8.240440   0.000000
      7          8.240451   0.000000
      8          8.891591   0.000000

  0.6250000E-01  0.1260017E-14  0.1264299E-14  0.2441406E-03
      1         -6.141833   1.000000
      2          5.116415   1.000000
      3          5.565495   1.000000
      4          5.565509   1.000000
      5          8.250177   0.000000
      6          8.330547   0.000000
      7          8.330563   0.000000
      8          9.200301   0.000000

  0.9375000E-01  0.1270773E-14  0.1271948E-14  0.2441406E-03
      1         -6.078920   1.000000
      2          4.612606   1.000000
      3          5.475062   1.000000
      4          5.475075   1.000000
      5          8.194268   0.000000
      6          8.465816   0.000000
      7          8.465832   0.000000
      8          9.662287   0.000000

  0.1250000E+00  0.1267308E-14  0.1272659E-14  0.2441406E-03
      1         -5.991392   1.000000
      2          4.052470   1.000000
      3          5.364866   1.000000
      4          5.364879   1.000000
      5          8.097720   0.000000
      6          8.626933   0.000000
      7          8.626949   0.000000
      8         10.194112   0.000000

  0.1562500E+00  0.1263843E-14  0.1280308E-14  0.2441406E-03
      1         -5.879545   1.000000
      2          3.472664   1.000000
      3          5.244824   1.000000
      4          5.244837   1.000000
      5          7.981690   0.000000
      6          8.794217   0.000000
      7          8.794234   0.000000
      8         10.752235   0.000000

  0.1875000E+00  0.1244644E-14  0.1253263E-14  0.2441406E-03
      1         -5.744012   1.000000
      2          2.888788   1.000000
      3          5.123689   1.000000
      4          5.123703   1.000000
      5          7.857302   0.000000
      6          8.946976   0.000000
      7          8.946994   0.000000
      8         11.315845   0.000000

  0.2187500E+00  0.1248118E-14  0.1253973E-14  0.2441406E-03
      1         -5.585705   1.000000
      2          2.312572   1.000000
      3          5.006980   1.000000
      4          5.006994   1.000000
      5          7.733346   0.000000
      6          9.068976   0.000000
      7          9.068998   0.000000
      8         11.873342   0.000000

  0.2500000E+00  0.1247879E-14  0.1254683E-14  0.2441406E-03
      1         -5.405956   1.000000
      2          1.750362   1.000000
      3          4.897724   1.000000
      4          4.897739   1.000000
      5          7.615049   0.000000
      6          9.146942   0.000000
      7          9.146968   0.000000
      8         12.413587   0.000000

  0.2812500E+00  0.1246270E-14  0.1283149E-14  0.2441406E-03
      1         -5.206547   1.000000
      2          1.208230   1.000000
      3          4.798397   1.000000
      4          4.798412   1.000000
      5          7.507032   0.000000
      6          9.180990   0.000000
      7          9.181019   0.000000
      8         12.910451   0.000000

  0.3125000E+00  0.1246031E-14  0.1256104E-14  0.2441406E-03
      1         -4.990574   1.000000
      2          0.691317   1.000000
      3          4.710569   1.000000
      4          4.710584   1.000000
      5          7.408670   0.000000
      6          9.178150   0.000000
      7          9.178181   0.000000
      8         13.294440   0.000000

  0.3437500E+00  0.1291139E-14  0.1312325E-14  0.2441406E-03
      1         -4.762591   1.000000
      2          0.204968   1.000000
      3          4.635129   1.000000
      4          4.635143   1.000000
      5          7.323466   0.000000
      6          9.150889   0.000000
      7          9.150921   0.000000
      8         13.473792   0.000000

  0.3750000E+00  0.1299695E-14  0.1313035E-14  0.2441406E-03
      1         -4.529539   1.000000
      2         -0.239865   1.000000
      3          4.573068   1.000000
      4          4.573083   1.000000
      5          7.252714   0.000000
      6          9.113477   0.000000
      7          9.113509   0.000000
      8         13.488110   0.000000

  0.4062500E+00  0.1280496E-14  0.1285990E-14  0.2441406E-03
      1         -4.303526   1.000000
      2         -0.631482   1.000000
      3          4.524498   1.000000
      4          4.524513   1.000000
      5          7.197084   0.000000
      6          9.073444   0.000000
      7          9.073476   0.000000
      8         13.444650   0.000000

  0.4375000E+00  0.1278888E-14  0.1286700E-14  0.2441406E-03
      1         -4.104269   1.000000
      2         -0.949573   1.000000
      3          4.489678   1.000000
      4          4.489693   1.000000
      5          7.155635   0.000000
      6          9.039914   0.000000
      7          9.039946   0.000000
      8         13.396293   0.000000

  0.4687500E+00  0.1277279E-14  0.1287411E-14  0.2441406E-03
      1         -3.961339   1.000000
      2         -1.163946   1.000000
      3          4.468758   1.000000
      4          4.468773   1.000000
      5          7.131463   0.000000
      6          9.017958   0.000000
      7          9.017991   0.000000
      8         13.362677   0.000000

  0.5000000E+00  0.1285836E-14  0.1315876E-14  0.1220703E-03
      1         -3.907717   1.000000
      2         -1.240689   1.000000
      3          4.462453   1.000000
      4          4.462469   1.000000
      5          7.123702   0.000000
      6          9.011145   0.000000
      7          9.011177   0.000000
      8         13.351258   0.000000

  0.3125000E-01  0.3125000E-01  0.1265220E-14  0.1831055E-03
      1         -6.175455   1.000000
      2          5.529585   1.000000
      3          5.577820   1.000000
      4          5.577830   1.000000
      5          8.167131   0.000000
      6          8.300184   0.000000
      7          8.300195   0.000000
      8          8.910707   0.000000

  0.6250000E-01  0.3125000E-01  0.1263275E-14  0.7324219E-03
      1         -6.145967   1.000000
      2          5.232519   1.000000
      3          5.494607   1.000000
      4          5.557742   1.000000
      5          8.161366   0.000000
      6          8.368264   0.000000
      7          8.414828   0.000000
      8          9.132339   0.000000

  0.9375000E-01  0.3125000E-01  0.1262250E-14  0.7324219E-03
      1         -6.091448   1.000000
      2          4.768175   1.000000
      3          5.386402   1.000000
      4          5.508119   1.000000
      5          8.198871   0.000000
      6          8.379787   0.000000
      7          8.568831   0.000000
      8          9.541208   0.000000

  0.1250000E+00  0.3125000E-01  0.1273369E-14  0.7324219E-03
      1         -6.012124   1.000000
      2          4.229041   1.000000
      3          5.264976   1.000000
      4          5.424352   1.000000
      5          8.184707   0.000000
      6          8.438203   0.000000
      7          8.744885   0.000000
      8         10.042398   0.000000

  0.1562500E+00  0.3125000E-01  0.1274079E-14  0.7324219E-03
      1         -5.908356   1.000000
      2          3.658496   1.000000
      3          5.138348   1.000000
      4          5.318057   1.000000
      5          8.096806   0.000000
      6          8.571715   0.000000
      7          8.924287   0.000000
      8         10.572795   0.000000

  0.1875000E+00  0.3125000E-01  0.1295606E-14  0.7324219E-03
      1         -5.780620   1.000000
      2          3.078461   1.000000
      3          5.014783   1.000000
      4          5.200429   1.000000
      5          7.983331   0.000000
      6          8.723671   0.000000
      7          9.088055   0.000000
      8         11.095426   0.000000

  0.2187500E+00  0.3125000E-01  0.1254683E-14  0.7324219E-03
      1         -5.629816   1.000000
      2          2.501569   1.000000
      3          4.898023   1.000000
      4          5.078850   1.000000
      5          7.863467   0.000000
      6          8.862141   0.000000
      7          9.218801   0.000000
      8         11.573440   0.000000

  0.2500000E+00  0.3125000E-01  0.1255393E-14  0.7324219E-03
      1         -5.457066   1.000000
      2          1.936178   1.000000
      3          4.791488   1.000000
      4          4.959691   1.000000
      5          7.746499   0.000000
      6          8.967892   0.000000
      7          9.304379   0.000000
      8         11.968249   0.000000

  0.2812500E+00  0.3125000E-01  0.1269981E-14  0.7324219E-03
      1         -5.263945   1.000000
      2          1.388411   1.000000
      3          4.696986   1.000000
      4          4.846478   1.000000
      5          7.637431   0.000000
      6          9.031487   0.000000
      7          9.341264   0.000000
      8         12.290975   0.000000

  0.3125000E+00  0.3125000E-01  0.1284569E-14  0.7324219E-03
      1         -5.053145   1.000000
      2          0.863550   1.000000
      3          4.615849   1.000000
      4          4.741785   1.000000
      5          7.536262   0.000000
      6          9.055265   0.000000
      7          9.334493   0.000000
      8         12.608415   0.000000

  0.3437500E+00  0.3125000E-01  0.1285280E-14  0.7324219E-03
      1         -4.828589   1.000000
      2          0.366700   1.000000
      3          4.548804   1.000000
      4          4.647294   1.000000
      5          7.447605   0.000000
      6          9.050944   0.000000
      7          9.299526   0.000000
      8         12.946585   0.000000

  0.3750000E+00  0.3125000E-01  0.1313746E-14  0.7324219E-03
      1         -4.596142   1.000000
      2         -0.092052   1.000000
      3          4.496624   1.000000
      4          4.564469   1.000000
      5          7.372693   0.000000
      6          9.031895   0.000000
      7          9.247237   0.000000
      8         13.251388   0.000000

  0.4062500E+00  0.3125000E-01  0.1286700E-14  0.7324219E-03
      1         -4.366009   1.000000
      2         -0.502757   1.000000
      3          4.459281   1.000000
      4          4.494066   1.000000
      5          7.312398   0.000000
      6          9.008128   0.000000
      7          9.190683   0.000000
      8         13.405119   0.000000

  0.4375000E+00  0.3125000E-01  0.1287411E-14  0.7324219E-03
      1         -4.154983   1.000000
      2         -0.847940   1.000000
      3          4.436598   1.000000
      4          4.436754   1.000000
      5          7.265934   0.000000
      6          8.989121   0.000000
      7          9.136747   0.000000
      8         13.425149   0.000000

  0.4687500E+00  0.3125000E-01  0.1288121E-14  0.7324219E-03
      1         -3.989373   1.000000
      2         -1.100588   1.000000
      3          4.392653   1.000000
      4          4.428983   1.000000
      5          7.236403   0.000000
      6          8.980859   0.000000
      7          9.092295   0.000000
      8         13.410588   0.000000

  0.5000000E+00  0.3125000E-01  0.1288831E-14  0.7324219E-03
      1         -3.903000   1.000000
      2         -1.226498   1.000000
      3          4.362731   1.000000
      4          4.435853   1.000000
      5          7.222851   0.000000
      6          8.986931   0.000000
      7          9.061369   0.000000
      8         13.400188   0.000000

 -0.4687500E+00  0.3125000E-01  0.1294568E-14  0.7324219E-03
      1         -3.921026   1.000000
      2         -1.200593   1.000000
      3          4.346683   1.000000
      4          4.456689   1.000000
      5          7.225145   0.000000
      6          9.007996   0.000000
      7          9.044577   0.000000
      8         13.404935   0.000000

 -0.4375000E+00  0.3125000E-01  0.1267523E-14  0.7324219E-03
      1         -4.037539   1.000000
      2         -1.028619   1.000000
      3          4.345589   1.000000
      4          4.491633   1.000000
      5          7.243325   0.000000
      6          9.042747   0.000000
      7          9.043952   0.000000
      8         13.424684   0.000000

 -0.4062500E+00  0.3125000E-01  0.1268233E-14  0.7324219E-03
      1         -4.221861   1.000000
      2         -0.741462   1.000000
      3          4.359145   1.000000
      4          4.540141   1.000000
      5          7.278333   0.000000
      6          9.053707   0.000000
      7          9.092727   0.000000
      8         13.449959   0.000000

 -0.3750000E+00  0.3125000E-01  0.1268943E-14  0.7324219E-03
      1         -4.441672   1.000000
      2         -0.371948   1.000000
      3          4.387593   1.000000
      4          4.601713   1.000000
      5          7.328406   0.000000
      6          9.072778   0.000000
      7          9.149305   0.000000
      8         13.450403   0.000000

 -0.3437500E+00  0.3125000E-01  0.1269654E-14  0.7324219E-03
      1         -4.674041   1.000000
      2          0.056354   1.000000
      3          4.431191   1.000000
      4          4.675824   1.000000
      5          7.393160   0.000000
      6          9.094309   0.000000
      7          9.206615   0.000000
      8         13.356232   0.000000

 -0.3125000E+00  0.3125000E-01  0.1298120E-14  0.7324219E-03
      1         -4.904728   1.000000
      2          0.528854   1.000000
      3          4.489845   1.000000
      4          4.761857   1.000000
      5          7.472572   0.000000
      6          9.107605   0.000000
      7          9.257028   0.000000
      8         13.109180   0.000000

 -0.2812500E+00  0.3125000E-01  0.1243319E-14  0.7324219E-03
      1         -5.125240   1.000000
      2          1.035733   1.000000
      3          4.563410   1.000000
      4          4.858782   1.000000
      5          7.565342   0.000000
      6          9.102229   0.000000
      7          9.285143   0.000000
      8         12.764575   0.000000

 -0.2500000E+00  0.3125000E-01  0.1299540E-14  0.7324219E-03
      1         -5.330465   1.000000
      2          1.568778   1.000000
      3          4.651147   1.000000
      4          4.965068   1.000000
      5          7.669987   0.000000
      6          9.064922   0.000000
      7          9.277590   0.000000
      8         12.375486   0.000000

 -0.2187500E+00  0.3125000E-01  0.1244739E-14  0.7324219E-03
      1         -5.517049   1.000000
      2          2.122834   1.000000
      3          4.752245   1.000000
      4          5.078760   1.000000
      5          7.782055   0.000000
      6          8.987334   0.000000
      7          9.222686   0.000000
      8         11.939086   0.000000

 -0.1875000E+00  0.3125000E-01  0.1245450E-14  0.7324219E-03
      1         -5.682616   1.000000
      2          2.692549   1.000000
      3          4.865429   1.000000
      4          5.196975   1.000000
      5          7.902261   0.000000
      6          8.870520   0.000000
      7          9.117053   0.000000
      8         11.458042   0.000000

 -0.1562500E+00  0.3125000E-01  0.1246160E-14  0.7324219E-03
      1         -5.825845   1.000000
      2          3.270880   1.000000
      3          4.988332   1.000000
      4          5.315403   1.000000
      5          8.024378   0.000000
      6          8.724692   0.000000
      7          8.967264   0.000000
      8         10.941974   0.000000

 -0.1250000E+00  0.3125000E-01  0.1246870E-14  0.7324219E-03
      1         -5.945639   1.000000
      2          3.847912   1.000000
      3          5.118107   1.000000
      4          5.428505   1.000000
      5          8.140673   0.000000
      6          8.568155   0.000000
      7          8.790075   0.000000
      8         10.410711   0.000000

 -0.9375000E-01  0.3125000E-01  0.1275336E-14  0.7324219E-03
      1         -6.041346   1.000000
      2          4.408029   1.000000
      3          5.249235   1.000000
      4          5.525165   1.000000
      5          8.239747   0.000000
      6          8.421840   0.000000
      7          8.604959   0.000000
      8          9.888254   0.000000

 -0.6250000E-01  0.3125000E-01  0.1269107E-14  0.7324219E-03
      1         -6.112434   1.000000
      2          4.919464   1.000000
      3          5.378618   1.000000
      4          5.597107   1.000000
      5          8.299707   0.000000
      6          8.307640   0.000000
      7          8.438683   0.000000
      8          9.413487   0.000000

 -0.3125000E-01  0.3125000E-01  0.1262879E-14  0.3662109E-03
      1         -6.158600   1.000000
      2          5.315175   1.000000
      3          5.507509   1.000000
      4          5.633286   1.000000
      5          8.243402   0.000000
      6          8.275244   0.000000
      7          8.331777   0.000000
      8          9.056324   0.000000

  0.6250000E-01  0.6250000E-01  0.1268061E-14  0.1831055E-03
      1         -6.124911   1.000000
      2          5.217299   1.000000
      3          5.392231   1.000000
      4          5.392241   1.000000
      5          8.050099   0.000000
      6          8.549439   0.000000
      7          8.549449   0.000000
      8          9.208036   0.000000

  0.9375000E-01  0.6250000E-01  0.1268165E-14  0.7324219E-03
      1         -6.078749   1.000000
      2          4.860249   1.000000
      3          5.270668   1.000000
      4          5.348017   1.000000
      5          8.014798   0.000000
      6          8.634021   0.000000
      7          8.720220   0.000000
      8          9.499151   0.000000

  0.1250000E+00  0.6250000E-01  0.1277549E-14  0.7324219E-03
      1         -6.007746   1.000000
      2          4.364349   1.000000
      3          5.139245   1.000000
      4          5.298113   1.000000
      5          8.045109   0.000000
      6          8.618853   0.000000
      7          8.910271   0.000000
      8          9.937345   0.000000

  0.1562500E+00  0.6250000E-01  0.1274790E-14  0.7324219E-03
      1         -5.912081   1.000000
      2          3.818876   1.000000
      3          5.007776   1.000000
      4          5.214495   1.000000
      5          8.100588   0.000000
      6          8.590427   0.000000
      7          9.103114   0.000000
      8         10.407229   0.000000

  0.1875000E+00  0.6250000E-01  0.1275500E-14  0.7324219E-03
      1         -5.792327   1.000000
      2          3.252770   1.000000
      3          4.881033   1.000000
      4          5.105851   1.000000
      5          8.118066   0.000000
      6          8.613094   0.000000
      7          9.280663   0.000000
      8         10.832226   0.000000

  0.2187500E+00  0.6250000E-01  0.1269271E-14  0.7324219E-03
      1         -5.649173   1.000000
      2          2.683400   1.000000
      3          4.763541   1.000000
      4          4.982936   1.000000
      5          8.070209   0.000000
      6          8.700030   0.000000
      7          9.425411   0.000000
      8         11.156502   0.000000

  0.2500000E+00  0.6250000E-01  0.1256104E-14  0.7324219E-03
      1         -5.483667   1.000000
      2          2.120411   1.000000
      3          4.657880   1.000000
      4          4.855233   1.000000
      5          7.985006   0.000000
      6          8.804381   0.000000
      7          9.523174   0.000000
      8         11.389484   0.000000

  0.2812500E+00  0.6250000E-01  0.1256814E-14  0.7324219E-03
      1         -5.297147   1.000000
      2          1.571492   1.000000
      3          4.565779   1.000000
      4          4.729158   1.000000
      5          7.891333   0.000000
      6          8.887360   0.000000
      7          9.568075   0.000000
      8         11.613248   0.000000

  0.3125000E+00  0.6250000E-01  0.1257524E-14  0.7324219E-03
      1         -5.091985   1.000000
      2          1.042480   1.000000
      3          4.488743   1.000000
      4          4.607983   1.000000
      5          7.796593   0.000000
      6          8.934406   0.000000
      7          9.566727   0.000000
      8         11.880740   0.000000

  0.3437500E+00  0.6250000E-01  0.1313746E-14  0.7324219E-03
      1         -4.871523   1.000000
      2          0.538754   1.000000
      3          4.427245   1.000000
      4          4.494884   1.000000
      5          7.709313   0.000000
      6          8.949304   0.000000
      7          9.528363   0.000000
      8         12.206112   0.000000

  0.3750000E+00  0.6250000E-01  0.1286700E-14  0.7324219E-03
      1         -4.640839   1.000000
      2          0.068591   1.000000
      3          4.381942   1.000000
      4          4.391965   1.000000
      5          7.632576   0.000000
      6          8.944049   0.000000
      7          9.466084   0.000000
      8         12.576501   0.000000

  0.4062500E+00  0.6250000E-01  0.1315166E-14  0.7324219E-03
      1         -4.408414   1.000000
      2         -0.357958   1.000000
      3          4.300674   1.000000
      4          4.352915   1.000000
      5          7.569254   0.000000
      6          8.932785   0.000000
      7          9.395578   0.000000
      8         12.956381   0.000000

  0.4375000E+00  0.6250000E-01  0.1315876E-14  0.7324219E-03
      1         -4.188470   1.000000
      2         -0.726288   1.000000
      3          4.222026   1.000000
      4          4.339922   1.000000
      5          7.519042   0.000000
      6          8.923631   0.000000
      7          9.324927   0.000000
      8         13.270935   0.000000

  0.4687500E+00  0.6250000E-01  0.1316587E-14  0.7324219E-03
      1         -4.003932   1.000000
      2         -1.012697   1.000000
      3          4.156865   1.000000
      4          4.342707   1.000000
      5          7.484320   0.000000
      6          8.924325   0.000000
      7          9.262433   0.000000
      8         13.444618   0.000000

  0.5000000E+00  0.6250000E-01  0.1289541E-14  0.7324219E-03
      1         -3.887253   1.000000
      2         -1.184260   1.000000
      3          4.105913   1.000000
      4          4.361041   1.000000
      5          7.465423   0.000000
      6          8.938871   0.000000
      7          9.209766   0.000000
      8         13.509045   0.000000

 -0.4687500E+00  0.6250000E-01  0.1267523E-14  0.7324219E-03
      1         -3.869276   1.000000
      2         -1.209796   1.000000
      3          4.069941   1.000000
      4          4.394487   1.000000
      5          7.462110   0.000000
      6          8.969328   0.000000
      7          9.170689   0.000000
      8         13.533082   0.000000

 -0.4375000E+00  0.6250000E-01  0.1268233E-14  0.7324219E-03
      1         -3.956099   1.000000
      2         -1.083765   1.000000
      3          4.049298   1.000000
      4          4.442416   1.000000
      5          7.474323   0.000000
      6          9.015437   0.000000
      7          9.145535   0.000000
      8         13.541249   0.000000

 -0.4062500E+00  0.6250000E-01  0.1268943E-14  0.7324219E-03
      1         -4.122061   1.000000
      2         -0.831321   1.000000
      3          4.044555   1.000000
      4          4.504050   1.000000
      5          7.502221   0.000000
      6          9.075275   0.000000
      7          9.133323   0.000000
      8         13.524730   0.000000

 -0.3750000E+00  0.6250000E-01  0.1297409E-14  0.7324219E-03
      1         -4.333339   1.000000
      2         -0.486889   1.000000
      3          4.056654   1.000000
      4          4.578737   1.000000
      5          7.546826   0.000000
      6          9.131357   0.000000
      7          9.146395   0.000000
      8         13.442082   0.000000

 -0.3437500E+00  0.6250000E-01  0.1298120E-14  0.7324219E-03
      1         -4.563559   1.000000
      2         -0.077591   1.000000
      3          4.085112   1.000000
      4          4.665469   1.000000
      5          7.604959   0.000000
      6          9.133438   0.000000
      7          9.220747   0.000000
      8         13.240279   0.000000

 -0.3125000E+00  0.6250000E-01  0.1298830E-14  0.7324219E-03
      1         -4.795951   1.000000
      2          0.379424   1.000000
      3          4.130539   1.000000
      4          4.763170   1.000000
      5          7.677363   0.000000
      6          9.130993   0.000000
      7          9.288711   0.000000
      8         12.928640   0.000000

 -0.2812500E+00  0.6250000E-01  0.1271785E-14  0.7324219E-03
      1         -5.020513   1.000000
      2          0.872383   1.000000
      3          4.193047   1.000000
      4          4.870407   1.000000
      5          7.763118   0.000000
      6          9.112805   0.000000
      7          9.339043   0.000000
      8         12.570798   0.000000

 -0.2500000E+00  0.6250000E-01  0.1272495E-14  0.7324219E-03
      1         -5.231159   1.000000
      2          1.393210   1.000000
      3          4.272758   1.000000
      4          4.985093   1.000000
      5          7.860757   0.000000
      6          9.066295   0.000000
      7          9.353924   0.000000
      8         12.210962   0.000000

 -0.2187500E+00  0.6250000E-01  0.1273205E-14  0.7324219E-03
      1         -5.424145   1.000000
      2          1.934887   1.000000
      3          4.369374   1.000000
      4          5.104685   1.000000
      5          7.965794   0.000000
      6          8.984111   0.000000
      7          9.317602   0.000000
      8         11.857561   0.000000

 -0.1875000E+00  0.6250000E-01  0.1260038E-14  0.7324219E-03
      1         -5.596764   1.000000
      2          2.491302   1.000000
      3          4.482579   1.000000
      4          5.225362   1.000000
      5          8.078896   0.000000
      6          8.865767   0.000000
      7          9.219300   0.000000
      8         11.497963   0.000000

 -0.1562500E+00  0.6250000E-01  0.1246870E-14  0.7324219E-03
      1         -5.747444   1.000000
      2          3.054458   1.000000
      3          4.612608   1.000000
      4          5.342142   1.000000
      5          8.194334   0.000000
      6          8.723146   0.000000
      7          9.063756   0.000000
      8         11.105339   0.000000

 -0.1250000E+00  0.6250000E-01  0.1247580E-14  0.7324219E-03
      1         -5.875079   1.000000
      2          3.611505   1.000000
      3          4.759728   1.000000
      4          5.447205   1.000000
      5          8.304278   0.000000
      6          8.574384   0.000000
      7          8.866364   0.000000
      8         10.670366   0.000000

 -0.9375000E-01  0.6250000E-01  0.1262168E-14  0.7324219E-03
      1         -5.978757   1.000000
      2          4.141338   1.000000
      3          4.928656   1.000000
      4          5.531533   1.000000
      5          8.397505   0.000000
      6          8.442079   0.000000
      7          8.653147   0.000000
      8         10.212824   0.000000

 -0.6250000E-01  0.6250000E-01  0.1276756E-14  0.3662109E-03
      1         -6.058002   1.000000
      2          4.596908   1.000000
      3          5.132963   1.000000
      4          5.584750   1.000000
      5          8.347551   0.000000
      6          8.448444   0.000000
      7          8.456088   0.000000
      8          9.772888   0.000000

  0.9375000E-01  0.9375000E-01  0.1270902E-14  0.1831055E-03
      1         -6.040949   1.000000
      2          4.786945   1.000000
      3          5.139059   1.000000
      4          5.139069   1.000000
      5          7.875759   0.000000
      6          8.905800   0.000000
      7          8.905811   0.000000
      8          9.577576   0.000000

  0.1250000E+00  0.9375000E-01  0.1271320E-14  0.7324219E-03
      1         -5.978208   1.000000
      2          4.420623   1.000000
      3          5.000447   1.000000
      4          5.062989   1.000000
      5          7.821447   0.000000
      6          9.000908   0.000000
      7          9.110253   0.000000
      8          9.866772   0.000000

  0.1562500E+00  0.9375000E-01  0.1278969E-14  0.7324219E-03
      1         -5.890736   1.000000
      2          3.929241   1.000000
      3          4.863891   1.000000
      4          4.999561   1.000000
      5          7.844975   0.000000
      6          8.975883   0.000000
      7          9.317892   0.000000
      8         10.243893   0.000000

  0.1875000E+00  0.9375000E-01  0.1276210E-14  0.7324219E-03
      1         -5.779014   1.000000
      2          3.394590   1.000000
      3          4.734029   1.000000
      4          4.905570   1.000000
      5          7.915715   0.000000
      6          8.926883   0.000000
      7          9.512060   0.000000
      8         10.553885   0.000000

  0.2187500E+00  0.9375000E-01  0.1276920E-14  0.7324219E-03
      1         -5.643668   1.000000
      2          2.844271   1.000000
      3          4.614392   1.000000
      4          4.786457   1.000000
      5          7.991880   0.000000
      6          8.895162   0.000000
      7          9.674126   0.000000
      8         10.739083   0.000000

  0.2500000E+00  0.9375000E-01  0.1284569E-14  0.7324219E-03
      1         -5.485587   1.000000
      2          2.292621   1.000000
      3          4.508045   1.000000
      4          4.653750   1.000000
      5          8.033185   0.000000
      6          8.900427   0.000000
      7          9.789490   0.000000
      8         10.854124   0.000000

  0.2812500E+00  0.9375000E-01  0.1257524E-14  0.7324219E-03