       N       E                     dE             d eps       ncg     rms          rms(c)
DAV:   1    -0.203879656491E+01   -0.20388E+01   -0.20849E+03 14632   0.432E+02
DAV:   2    -0.109077521392E+02   -0.88690E+01   -0.85282E+01 22176   0.553E+01
DAV:   3    -0.109959610813E+02   -0.88209E-01   -0.88209E-01 18352   0.679E+00
DAV:   4    -0.109962358367E+02   -0.27476E-03   -0.27476E-03 22712   0.379E-01
DAV:   5    -0.109962360333E+02   -0.19661E-06   -0.19678E-06 18624   0.787E-03    0.525E+00
DAV:   6    -0.108801699165E+02    0.11607E+00   -0.75246E-02 17080   0.142E+00    0.321E+00
DAV:   7    -0.108268734385E+02    0.53296E-01   -0.14516E-01 18584   0.211E+00    0.177E-01
DAV:   8    -0.108278777516E+02   -0.10043E-02   -0.34409E-03 16192   0.426E-01    0.715E-02
DAV:   9    -0.108280836084E+02   -0.20586E-03   -0.20254E-04 20992   0.108E-01    0.567E-02
DAV:  10    -0.108281068637E+02   -0.23255E-04   -0.25833E-05 16808   0.379E-02    0.827E-03
DAV:  11    -0.108281066531E+02    0.21065E-06   -0.64134E-07 22904   0.526E-03    0.223E-03
DAV:  12    -0.108281069982E+02   -0.34512E-06   -0.53290E-07 16520   0.574E-03    0.964E-04
DAV:  13    -0.108281070151E+02   -0.16922E-07   -0.16743E-09 21096   0.351E-04    0.236E-04
DAV:  14    -0.108281070150E+02    0.12244E-09   -0.21654E-10  9208   0.130E-04
   1 F= -.10828107E+02 E0= -.10828107E+02  d E =-.354399E-11
