 vasp.6.3.2 27Jun22 (build Nov 28 2025 11:56:12) complex                         
 executed on             LinuxGNU date 2025.12.09  19:39:56
 running    2 mpi-ranks, with    1 threads/rank
 distrk:  each k-point on    2 cores,    1 groups
 distr:  one band on NCORE=   1 cores,    2 groups


--------------------------------------------------------------------------------------------------------


 INCAR:
   ISTART = 1            (Read existing wavefunction, if there)
   ISPIN = 1            (Non-Spin polarised DFT)
   LREAL = .FALSE.       (Projection operators: automatic)
   LWAVE = .TRUE.        (Write WAVECAR or not)
   LCHARG = .TRUE.        (Write CHGCAR or not)
   ADDGRID = .TRUE.        (Increase grid, helps GGA convergence)
   ISMEAR = 0            (gaussian smearing method)
   SIGMA = 0.05         (please check the width of the smearing)
   LORBIT = 11           (PAW radii for projected DOS)
   NEDOS = 2001         (DOSCAR points)
   NELM = 60           (Max electronic SCF steps)
   EDIFF = 1E-08        (SCF energy convergence, in eV)

 POTCAR:    PAW_PBE Si 05Jan2001                  
 POTCAR:    PAW_PBE Si 05Jan2001                  
   VRHFIN =Si: s2p2                                                                                 
   LEXCH  = PE                                                                                      
   EATOM  =   103.0669 eV,    7.5752 Ry                                                             
                                                                                                    
   TITEL  = PAW_PBE Si 05Jan2001                                                                    
   LULTRA =        F    use ultrasoft PP ?                                                          
   IUNSCR =        1    unscreen: 0-lin 1-nonlin 2-no                                               
   RPACOR =    1.500    partial core radius                                                         
   POMASS =   28.085; ZVAL   =    4.000    mass and valenz                                          
   RCORE  =    1.900    outmost cutoff radius                                                       
   RWIGS  =    2.480; RWIGS  =    1.312    wigner-seitz radius (au A)                               
   ENMAX  =  245.345; ENMIN  =  184.009 eV                                                          
   ICORE  =        2    local potential                                                             
   LCOR   =        T    correct aug charges                                                         
   LPAW   =        T    paw PP                                                                      
   EAUG   =  322.069                                                                                
   DEXC   =    0.000                                                                                
   RMAX   =    1.950    core radius for proj-oper                                                   
   RAUG   =    1.300    factor for augmentation sphere                                              
   RDEP   =    1.993    radius for radial grids                                                     
   RDEPT  =    1.837    core radius for aug-charge                                                  
                                                                                                    
   Atomic configuration                                                                             
    6 entries                                                                                       
     n  l   j            E        occ.                                                              
     1  0  0.50     -1785.8828   2.0000                                                             
     2  0  0.50      -139.4969   2.0000                                                             
     2  1  1.50       -95.5546   6.0000                                                             
     3  0  0.50       -10.8127   2.0000                                                             
     3  1  0.50        -4.0811   2.0000                                                             
     3  2  1.50        -4.0817   0.0000                                                             
   Description                                                                                      
     l       E           TYP  RCUT    TYP  RCUT                                                     
     0    -10.8127223     23  1.900                                                                 
     0     -7.6451159     23  1.900                                                                 
     1     -4.0811372     23  1.900                                                                 
     1      2.4879257     23  1.900                                                                 
     2     -4.0817478      7  1.900                                                                 
  local pseudopotential read in
  partial core-charges read in
  partial kinetic energy density read in
  atomic valenz-charges read in
  non local Contribution for L=           0  read in
    real space projection operators read in
  non local Contribution for L=           0  read in
    real space projection operators read in
  non local Contribution for L=           1  read in
    real space projection operators read in
  non local Contribution for L=           1  read in
    real space projection operators read in
    PAW grid and wavefunctions read in

   number of l-projection  operators is LMAX  =           4
   number of lm-projection operators is LMMAX =           8

  PAW_PBE Si 05Jan2001                  :
 energy of atom  1       EATOM= -103.0669
 kinetic energy error for atom=    0.0056 (will be added to EATOM!!)


 POSCAR: cubic diamond Si
  positions in direct lattice
  No initial velocities read in
 exchange correlation table for  LEXCH =        8
   RHO(1)=    0.500       N(1)  =     2000
   RHO(2)=  100.500       N(2)  =     4000



--------------------------------------------------------------------------------------------------------


 ion  position               nearest neighbor table
   1  0.875  0.875  0.875-   2 2.37   2 2.37   2 2.37   2 2.37
   2  0.125  0.125  0.125-   1 2.37   1 2.37   1 2.37   1 2.37

  LATTYP: Found a face centered cubic cell.
 ALAT       =     5.4648957000
  
  Lattice vectors:
  
 A1 = (   0.0000000000,   2.7324478500,   2.7324478500)
 A2 = (   2.7324478500,   0.0000000000,   2.7324478500)
 A3 = (   2.7324478500,   2.7324478500,   0.0000000000)


Analysis of symmetry for initial positions (statically):
=====================================================================
 Subroutine PRICEL returns:
 Original cell was already a primitive cell.
 

 Routine SETGRP: Setting up the symmetry group for a 
 face centered cubic supercell.


 Subroutine GETGRP returns: Found 48 space group operations
 (whereof 12 operations were pure point group operations)
 out of a pool of 48 trial point group operations.


The static configuration has the point symmetry D_3d.
 The point group associated with its full space group is O_h .


Analysis of symmetry for dynamics (positions and initial velocities):
=====================================================================
 Subroutine PRICEL returns:
 Original cell was already a primitive cell.
 

 Routine SETGRP: Setting up the symmetry group for a 
 face centered cubic supercell.


 Subroutine GETGRP returns: Found 48 space group operations
 (whereof 12 operations were pure point group operations)
 out of a pool of 48 trial point group operations.


The dynamic configuration has the point symmetry D_3d.
 The point group associated with its full space group is O_h .


 Subroutine INISYM returns: Found 48 space group operations
 (whereof 12 operations are pure point group operations),
 and found     1 'primitive' translations


----------------------------------------------------------------------------------------

                                     Primitive cell                                     

  volume of cell :      40.8024

  direct lattice vectors                    reciprocal lattice vectors
     0.000000000  2.732447850  2.732447850    -0.182986109  0.182986109  0.182986109
     2.732447850  0.000000000  2.732447850     0.182986109 -0.182986109  0.182986109
     2.732447850  2.732447850  0.000000000     0.182986109  0.182986109 -0.182986109

  length of vectors
     3.864264808  3.864264808  3.864264808     0.316941238  0.316941238  0.316941238

  position of ions in fractional coordinates (direct lattice)
     0.875000000  0.875000000  0.875000000
     0.125000000  0.125000000  0.125000000

  ion indices of the primitive-cell ions
   primitive index   ion index
                 1           1
                 2           2

----------------------------------------------------------------------------------------



 KPOINTS: K-Spacing Value to Generate K-Mesh: 0.01

Automatic generation of k-mesh.
 Grid dimensions read from file:
 generate k-points for:   32   32   32

 Generating k-lattice:

  Cartesian coordinates                     Fractional coordinates (reciprocal lattice)
    -0.005718316  0.005718316  0.005718316     0.031250000  0.000000000 -0.000000000
     0.005718316 -0.005718316  0.005718316     0.000000000  0.031250000  0.000000000
     0.005718316  0.005718316 -0.005718316    -0.000000000 -0.000000000  0.031250000

  Length of vectors
     0.009904414  0.009904414  0.009904414

  Shift w.r.t. Gamma in fractional coordinates (k-lattice)
     0.000000000  0.000000000  0.000000000

 
 Subroutine IBZKPT returns following result:
 ===========================================
 
 Found    897 irreducible k-points:
 
 Following reciprocal coordinates:
            Coordinates               Weight
  0.000000  0.000000  0.000000      1.000000
  0.031250  0.000000  0.000000      8.000000
  0.062500  0.000000  0.000000      8.000000
  0.093750  0.000000  0.000000      8.000000
  0.125000  0.000000  0.000000      8.000000
  0.156250  0.000000  0.000000      8.000000
  0.187500  0.000000  0.000000      8.000000
  0.218750  0.000000  0.000000      8.000000
  0.250000  0.000000  0.000000      8.000000
  0.281250  0.000000  0.000000      8.000000
  0.312500  0.000000  0.000000      8.000000
  0.343750  0.000000  0.000000      8.000000
  0.375000  0.000000  0.000000      8.000000
  0.406250  0.000000  0.000000      8.000000
  0.437500  0.000000  0.000000      8.000000
  0.468750  0.000000  0.000000      8.000000
  0.500000  0.000000  0.000000      4.000000
  0.031250  0.031250  0.000000      6.000000
  0.062500  0.031250  0.000000     24.000000
  0.093750  0.031250  0.000000     24.000000
  0.125000  0.031250  0.000000     24.000000
  0.156250  0.031250  0.000000     24.000000
  0.187500  0.031250  0.000000     24.000000
  0.218750  0.031250  0.000000     24.000000
  0.250000  0.031250  0.000000     24.000000
  0.281250  0.031250  0.000000     24.000000
  0.312500  0.031250  0.000000     24.000000
  0.343750  0.031250  0.000000     24.000000
  0.375000  0.031250  0.000000     24.000000
  0.406250  0.031250  0.000000     24.000000
  0.437500  0.031250  0.000000     24.000000
  0.468750  0.031250  0.000000     24.000000
  0.500000  0.031250  0.000000     24.000000
 -0.468750  0.031250  0.000000     24.000000
 -0.437500  0.031250  0.000000     24.000000
 -0.406250  0.031250  0.000000     24.000000
 -0.375000  0.031250  0.000000     24.000000
 -0.343750  0.031250  0.000000     24.000000
 -0.312500  0.031250  0.000000     24.000000
 -0.281250  0.031250  0.000000     24.000000
 -0.250000  0.031250  0.000000     24.000000
 -0.218750  0.031250  0.000000     24.000000
 -0.187500  0.031250  0.000000     24.000000
 -0.156250  0.031250  0.000000     24.000000
 -0.125000  0.031250  0.000000     24.000000
 -0.093750  0.031250  0.000000     24.000000
 -0.062500  0.031250  0.000000     24.000000
 -0.031250  0.031250  0.000000     12.000000
  0.062500  0.062500  0.000000      6.000000
  0.093750  0.062500  0.000000     24.000000
  0.125000  0.062500  0.000000     24.000000
  0.156250  0.062500  0.000000     24.000000
  0.187500  0.062500  0.000000     24.000000
  0.218750  0.062500  0.000000     24.000000
  0.250000  0.062500  0.000000     24.000000
  0.281250  0.062500  0.000000     24.000000
  0.312500  0.062500  0.000000     24.000000
  0.343750  0.062500  0.000000     24.000000
  0.375000  0.062500  0.000000     24.000000
  0.406250  0.062500  0.000000     24.000000
  0.437500  0.062500  0.000000     24.000000
  0.468750  0.062500  0.000000     24.000000
  0.500000  0.062500  0.000000     24.000000
 -0.468750  0.062500  0.000000     24.000000
 -0.437500  0.062500  0.000000     24.000000
 -0.406250  0.062500  0.000000     24.000000
 -0.375000  0.062500  0.000000     24.000000
 -0.343750  0.062500  0.000000     24.000000
 -0.312500  0.062500  0.000000     24.000000
 -0.281250  0.062500  0.000000     24.000000
 -0.250000  0.062500  0.000000     24.000000
 -0.218750  0.062500  0.000000     24.000000
 -0.187500  0.062500  0.000000     24.000000
 -0.156250  0.062500  0.000000     24.000000
 -0.125000  0.062500  0.000000     24.000000
 -0.093750  0.062500  0.000000     24.000000
 -0.062500  0.062500  0.000000     12.000000
  0.093750  0.093750  0.000000      6.000000
  0.125000  0.093750  0.000000     24.000000
  0.156250  0.093750  0.000000     24.000000
  0.187500  0.093750  0.000000     24.000000
  0.218750  0.093750  0.000000     24.000000
  0.250000  0.093750  0.000000     24.000000
  0.281250  0.093750  0.000000     24.000000
  0.312500  0.093750  0.000000     24.000000
  0.343750  0.093750  0.000000     24.000000
  0.375000  0.093750  0.000000     24.000000
  0.406250  0.093750  0.000000     24.000000
  0.437500  0.093750  0.000000     24.000000
  0.468750  0.093750  0.000000     24.000000
  0.500000  0.093750  0.000000     24.000000
 -0.468750  0.093750  0.000000     24.000000
 -0.437500  0.093750  0.000000     24.000000
 -0.406250  0.093750  0.000000     24.000000
 -0.375000  0.093750  0.000000     24.000000
 -0.343750  0.093750  0.000000     24.000000
 -0.312500  0.093750  0.000000     24.000000
 -0.281250  0.093750  0.000000     24.000000
 -0.250000  0.093750  0.000000     24.000000
 -0.218750  0.093750  0.000000     24.000000
 -0.187500  0.093750  0.000000     24.000000
 -0.156250  0.093750  0.000000     24.000000
 -0.125000  0.093750  0.000000     24.000000
 -0.093750  0.093750  0.000000     12.000000
  0.125000  0.125000  0.000000      6.000000
  0.156250  0.125000  0.000000     24.000000
  0.187500  0.125000  0.000000     24.000000
  0.218750  0.125000  0.000000     24.000000
  0.250000  0.125000  0.000000     24.000000
  0.281250  0.125000  0.000000     24.000000
  0.312500  0.125000  0.000000     24.000000
  0.343750  0.125000  0.000000     24.000000
  0.375000  0.125000  0.000000     24.000000
  0.406250  0.125000  0.000000     24.000000
  0.437500  0.125000  0.000000     24.000000
  0.468750  0.125000  0.000000     24.000000
  0.500000  0.125000  0.000000     24.000000
 -0.468750  0.125000  0.000000     24.000000
 -0.437500  0.125000  0.000000     24.000000
 -0.406250  0.125000  0.000000     24.000000
 -0.375000  0.125000  0.000000     24.000000
 -0.343750  0.125000  0.000000     24.000000
 -0.312500  0.125000  0.000000     24.000000
 -0.281250  0.125000  0.000000     24.000000
 -0.250000  0.125000  0.000000     24.000000
 -0.218750  0.125000  0.000000     24.000000
 -0.187500  0.125000  0.000000     24.000000
 -0.156250  0.125000  0.000000     24.000000
 -0.125000  0.125000  0.000000     12.000000
  0.156250  0.156250  0.000000      6.000000
  0.187500  0.156250  0.000000     24.000000
  0.218750  0.156250  0.000000     24.000000
  0.250000  0.156250  0.000000     24.000000
  0.281250  0.156250  0.000000     24.000000
  0.312500  0.156250  0.000000     24.000000
  0.343750  0.156250  0.000000     24.000000
  0.375000  0.156250  0.000000     24.000000
  0.406250  0.156250  0.000000     24.000000
  0.437500  0.156250  0.000000     24.000000
  0.468750  0.156250  0.000000     24.000000
  0.500000  0.156250  0.000000     24.000000
 -0.468750  0.156250  0.000000     24.000000
 -0.437500  0.156250  0.000000     24.000000
 -0.406250  0.156250  0.000000     24.000000
 -0.375000  0.156250  0.000000     24.000000
 -0.343750  0.156250  0.000000     24.000000
 -0.312500  0.156250  0.000000     24.000000
 -0.281250  0.156250  0.000000     24.000000
 -0.250000  0.156250  0.000000     24.000000
 -0.218750  0.156250  0.000000     24.000000
 -0.187500  0.156250  0.000000     24.000000
 -0.156250  0.156250  0.000000     12.000000
  0.187500  0.187500  0.000000      6.000000
  0.218750  0.187500  0.000000     24.000000
  0.250000  0.187500  0.000000     24.000000
  0.281250  0.187500  0.000000     24.000000
  0.312500  0.187500  0.000000     24.000000
  0.343750  0.187500  0.000000     24.000000
  0.375000  0.187500  0.000000     24.000000
  0.406250  0.187500  0.000000     24.000000
  0.437500  0.187500  0.000000     24.000000
  0.468750  0.187500  0.000000     24.000000
  0.500000  0.187500  0.000000     24.000000
 -0.468750  0.187500  0.000000     24.000000
 -0.437500  0.187500  0.000000     24.000000
 -0.406250  0.187500  0.000000     24.000000
 -0.375000  0.187500  0.000000     24.000000
 -0.343750  0.187500  0.000000     24.000000
 -0.312500  0.187500  0.000000     24.000000
 -0.281250  0.187500  0.000000     24.000000
 -0.250000  0.187500  0.000000     24.000000
 -0.218750  0.187500  0.000000     24.000000
 -0.187500  0.187500  0.000000     12.000000
  0.218750  0.218750  0.000000      6.000000
  0.250000  0.218750  0.000000     24.000000
  0.281250  0.218750  0.000000     24.000000
  0.312500  0.218750  0.000000     24.000000
  0.343750  0.218750  0.000000     24.000000
  0.375000  0.218750  0.000000     24.000000
  0.406250  0.218750  0.000000     24.000000
  0.437500  0.218750  0.000000     24.000000
  0.468750  0.218750  0.000000     24.000000
  0.500000  0.218750  0.000000     24.000000
 -0.468750  0.218750  0.000000     24.000000
 -0.437500  0.218750  0.000000     24.000000
 -0.406250  0.218750  0.000000     24.000000
 -0.375000  0.218750  0.000000     24.000000
 -0.343750  0.218750  0.000000     24.000000
 -0.312500  0.218750  0.000000     24.000000
 -0.281250  0.218750  0.000000     24.000000
 -0.250000  0.218750  0.000000     24.000000
 -0.218750  0.218750  0.000000     12.000000
  0.250000  0.250000  0.000000      6.000000
  0.281250  0.250000  0.000000     24.000000
  0.312500  0.250000  0.000000     24.000000
  0.343750  0.250000  0.000000     24.000000
  0.375000  0.250000  0.000000     24.000000
  0.406250  0.250000  0.000000     24.000000
  0.437500  0.250000  0.000000     24.000000
  0.468750  0.250000  0.000000     24.000000
  0.500000  0.250000  0.000000     24.000000
 -0.468750  0.250000  0.000000     24.000000
 -0.437500  0.250000  0.000000     24.000000
 -0.406250  0.250000  0.000000     24.000000
 -0.375000  0.250000  0.000000     24.000000
 -0.343750  0.250000  0.000000     24.000000
 -0.312500  0.250000  0.000000     24.000000
 -0.281250  0.250000  0.000000     24.000000
 -0.250000  0.250000  0.000000     12.000000
  0.281250  0.281250  0.000000      6.000000
  0.312500  0.281250  0.000000     24.000000
  0.343750  0.281250  0.000000     24.000000
  0.375000  0.281250  0.000000     24.000000
  0.406250  0.281250  0.000000     24.000000
  0.437500  0.281250  0.000000     24.000000
  0.468750  0.281250  0.000000     24.000000
  0.500000  0.281250  0.000000     24.000000
 -0.468750  0.281250  0.000000     24.000000
 -0.437500  0.281250  0.000000     24.000000
 -0.406250  0.281250  0.000000     24.000000
 -0.375000  0.281250  0.000000     24.000000
 -0.343750  0.281250  0.000000     24.000000
 -0.312500  0.281250  0.000000     24.000000
 -0.281250  0.281250  0.000000     12.000000
  0.312500  0.312500  0.000000      6.000000
  0.343750  0.312500  0.000000     24.000000
  0.375000  0.312500  0.000000     24.000000
  0.406250  0.312500  0.000000     24.000000
  0.437500  0.312500  0.000000     24.000000
  0.468750  0.312500  0.000000     24.000000
  0.500000  0.312500  0.000000     24.000000
 -0.468750  0.312500  0.000000     24.000000
 -0.437500  0.312500  0.000000     24.000000
 -0.406250  0.312500  0.000000     24.000000
 -0.375000  0.312500  0.000000     24.000000
 -0.343750  0.312500  0.000000     24.000000
 -0.312500  0.312500  0.000000     12.000000
  0.343750  0.343750  0.000000      6.000000
  0.375000  0.343750  0.000000     24.000000
  0.406250  0.343750  0.000000     24.000000
  0.437500  0.343750  0.000000     24.000000
  0.468750  0.343750  0.000000     24.000000
  0.500000  0.343750  0.000000     24.000000
 -0.468750  0.343750  0.000000     24.000000
 -0.437500  0.343750  0.000000     24.000000
 -0.406250  0.343750  0.000000     24.000000
 -0.375000  0.343750  0.000000     24.000000
 -0.343750  0.343750  0.000000     12.000000
  0.375000  0.375000  0.000000      6.000000
  0.406250  0.375000  0.000000     24.000000
  0.437500  0.375000  0.000000     24.000000
  0.468750  0.375000  0.000000     24.000000
  0.500000  0.375000  0.000000     24.000000
 -0.468750  0.375000  0.000000     24.000000
 -0.437500  0.375000  0.000000     24.000000
 -0.406250  0.375000  0.000000     24.000000
 -0.375000  0.375000  0.000000     12.000000
  0.406250  0.406250  0.000000      6.000000
  0.437500  0.406250  0.000000     24.000000
  0.468750  0.406250  0.000000     24.000000
  0.500000  0.406250  0.000000     24.000000
 -0.468750  0.406250  0.000000     24.000000
 -0.437500  0.406250  0.000000     24.000000
 -0.406250  0.406250  0.000000     12.000000
  0.437500  0.437500  0.000000      6.000000
  0.468750  0.437500  0.000000     24.000000
  0.500000  0.437500  0.000000     24.000000
 -0.468750  0.437500  0.000000     24.000000
 -0.437500  0.437500  0.000000     12.000000
  0.468750  0.468750  0.000000      6.000000
  0.500000  0.468750  0.000000     24.000000
 -0.468750  0.468750  0.000000     12.000000
  0.500000  0.500000  0.000000      3.000000
  0.093750  0.062500  0.031250     24.000000
  0.125000  0.062500  0.031250     48.000000
  0.156250  0.062500  0.031250     48.000000
  0.187500  0.062500  0.031250     48.000000
  0.218750  0.062500  0.031250     48.000000
  0.250000  0.062500  0.031250     48.000000
  0.281250  0.062500  0.031250     48.000000
  0.312500  0.062500  0.031250     48.000000
  0.343750  0.062500  0.031250     48.000000
  0.375000  0.062500  0.031250     48.000000
  0.406250  0.062500  0.031250     48.000000
  0.437500  0.062500  0.031250     48.000000
  0.468750  0.062500  0.031250     48.000000
  0.500000  0.062500  0.031250     48.000000
 -0.468750  0.062500  0.031250     24.000000
  0.125000  0.093750  0.031250     24.000000
  0.156250  0.093750  0.031250     48.000000
  0.187500  0.093750  0.031250     48.000000
  0.218750  0.093750  0.031250     48.000000
  0.250000  0.093750  0.031250     48.000000
  0.281250  0.093750  0.031250     48.000000
  0.312500  0.093750  0.031250     48.000000
  0.343750  0.093750  0.031250     48.000000
  0.375000  0.093750  0.031250     48.000000
  0.406250  0.093750  0.031250     48.000000
  0.437500  0.093750  0.031250     48.000000
  0.468750  0.093750  0.031250     48.000000
  0.500000  0.093750  0.031250     48.000000
 -0.468750  0.093750  0.031250     48.000000
 -0.437500  0.093750  0.031250     48.000000
 -0.406250  0.093750  0.031250     48.000000
 -0.375000  0.093750  0.031250     48.000000
 -0.343750  0.093750  0.031250     48.000000
 -0.312500  0.093750  0.031250     48.000000
 -0.281250  0.093750  0.031250     48.000000
 -0.250000  0.093750  0.031250     48.000000
 -0.218750  0.093750  0.031250     48.000000
 -0.187500  0.093750  0.031250     48.000000
 -0.156250  0.093750  0.031250     48.000000
 -0.125000  0.093750  0.031250     48.000000
 -0.093750  0.093750  0.031250     48.000000
 -0.062500  0.093750  0.031250     24.000000
  0.156250  0.125000  0.031250     24.000000
  0.187500  0.125000  0.031250     48.000000
  0.218750  0.125000  0.031250     48.000000
  0.250000  0.125000  0.031250     48.000000
  0.281250  0.125000  0.031250     48.000000
  0.312500  0.125000  0.031250     48.000000
  0.343750  0.125000  0.031250     48.000000
  0.375000  0.125000  0.031250     48.000000
  0.406250  0.125000  0.031250     48.000000
  0.437500  0.125000  0.031250     48.000000
  0.468750  0.125000  0.031250     48.000000
  0.500000  0.125000  0.031250     48.000000
 -0.468750  0.125000  0.031250     48.000000
 -0.437500  0.125000  0.031250     48.000000
 -0.406250  0.125000  0.031250     48.000000
 -0.375000  0.125000  0.031250     48.000000
 -0.343750  0.125000  0.031250     48.000000
 -0.312500  0.125000  0.031250     48.000000
 -0.281250  0.125000  0.031250     48.000000
 -0.250000  0.125000  0.031250     48.000000
 -0.218750  0.125000  0.031250     48.000000
 -0.187500  0.125000  0.031250     48.000000
 -0.156250  0.125000  0.031250     48.000000
 -0.125000  0.125000  0.031250     48.000000
 -0.093750  0.125000  0.031250     24.000000
  0.187500  0.156250  0.031250     24.000000
  0.218750  0.156250  0.031250     48.000000
  0.250000  0.156250  0.031250     48.000000
  0.281250  0.156250  0.031250     48.000000
  0.312500  0.156250  0.031250     48.000000
  0.343750  0.156250  0.031250     48.000000
  0.375000  0.156250  0.031250     48.000000
  0.406250  0.156250  0.031250     48.000000
  0.437500  0.156250  0.031250     48.000000
  0.468750  0.156250  0.031250     48.000000
  0.500000  0.156250  0.031250     48.000000
 -0.468750  0.156250  0.031250     48.000000
 -0.437500  0.156250  0.031250     48.000000
 -0.406250  0.156250  0.031250     48.000000
 -0.375000  0.156250  0.031250     48.000000
 -0.343750  0.156250  0.031250     48.000000
 -0.312500  0.156250  0.031250     48.000000
 -0.281250  0.156250  0.031250     48.000000
 -0.250000  0.156250  0.031250     48.000000
 -0.218750  0.156250  0.031250     48.000000
 -0.187500  0.156250  0.031250     48.000000
 -0.156250  0.156250  0.031250     48.000000
 -0.125000  0.156250  0.031250     24.000000
  0.218750  0.187500  0.031250     24.000000
  0.250000  0.187500  0.031250     48.000000
  0.281250  0.187500  0.031250     48.000000
  0.312500  0.187500  0.031250     48.000000
  0.343750  0.187500  0.031250     48.000000
  0.375000  0.187500  0.031250     48.000000
  0.406250  0.187500  0.031250     48.000000
  0.437500  0.187500  0.031250     48.000000
  0.468750  0.187500  0.031250     48.000000
  0.500000  0.187500  0.031250     48.000000
 -0.468750  0.187500  0.031250     48.000000
 -0.437500  0.187500  0.031250     48.000000
 -0.406250  0.187500  0.031250     48.000000
 -0.375000  0.187500  0.031250     48.000000
 -0.343750  0.187500  0.031250     48.000000
 -0.312500  0.187500  0.031250     48.000000
 -0.281250  0.187500  0.031250     48.000000
 -0.250000  0.187500  0.031250     48.000000
 -0.218750  0.187500  0.031250     48.000000
 -0.187500  0.187500  0.031250     48.000000
 -0.156250  0.187500  0.031250     24.000000
  0.250000  0.218750  0.031250     24.000000
  0.281250  0.218750  0.031250     48.000000
  0.312500  0.218750  0.031250     48.000000
  0.343750  0.218750  0.031250     48.000000
  0.375000  0.218750  0.031250     48.000000
  0.406250  0.218750  0.031250     48.000000
  0.437500  0.218750  0.031250     48.000000
  0.468750  0.218750  0.031250     48.000000
  0.500000  0.218750  0.031250     48.000000
 -0.468750  0.218750  0.031250     48.000000
 -0.437500  0.218750  0.031250     48.000000
 -0.406250  0.218750  0.031250     48.000000
 -0.375000  0.218750  0.031250     48.000000
 -0.343750  0.218750  0.031250     48.000000
 -0.312500  0.218750  0.031250     48.000000
 -0.281250  0.218750  0.031250     48.000000
 -0.250000  0.218750  0.031250     48.000000
 -0.218750  0.218750  0.031250     48.000000
 -0.187500  0.218750  0.031250     24.000000
  0.281250  0.250000  0.031250     24.000000
  0.312500  0.250000  0.031250     48.000000
  0.343750  0.250000  0.031250     48.000000
  0.375000  0.250000  0.031250     48.000000
  0.406250  0.250000  0.031250     48.000000
  0.437500  0.250000  0.031250     48.000000
  0.468750  0.250000  0.031250     48.000000
  0.500000  0.250000  0.031250     48.000000
 -0.468750  0.250000  0.031250     48.000000
 -0.437500  0.250000  0.031250     48.000000
 -0.406250  0.250000  0.031250     48.000000
 -0.375000  0.250000  0.031250     48.000000
 -0.343750  0.250000  0.031250     48.000000
 -0.312500  0.250000  0.031250     48.000000
 -0.281250  0.250000  0.031250     48.000000
 -0.250000  0.250000  0.031250     48.000000
 -0.218750  0.250000  0.031250     24.000000
  0.312500  0.281250  0.031250     24.000000
  0.343750  0.281250  0.031250     48.000000
  0.375000  0.281250  0.031250     48.000000
  0.406250  0.281250  0.031250     48.000000
  0.437500  0.281250  0.031250     48.000000
  0.468750  0.281250  0.031250     48.000000
  0.500000  0.281250  0.031250     48.000000
 -0.468750  0.281250  0.031250     48.000000
 -0.437500  0.281250  0.031250     48.000000
 -0.406250  0.281250  0.031250     48.000000
 -0.375000  0.281250  0.031250     48.000000
 -0.343750  0.281250  0.031250     48.000000
 -0.312500  0.281250  0.031250     48.000000
 -0.281250  0.281250  0.031250     48.000000
 -0.250000  0.281250  0.031250     24.000000
  0.343750  0.312500  0.031250     24.000000
  0.375000  0.312500  0.031250     48.000000
  0.406250  0.312500  0.031250     48.000000
  0.437500  0.312500  0.031250     48.000000
  0.468750  0.312500  0.031250     48.000000
  0.500000  0.312500  0.031250     48.000000
 -0.468750  0.312500  0.031250     48.000000
 -0.437500  0.312500  0.031250     48.000000
 -0.406250  0.312500  0.031250     48.000000
 -0.375000  0.312500  0.031250     48.000000
 -0.343750  0.312500  0.031250     48.000000
 -0.312500  0.312500  0.031250     48.000000
 -0.281250  0.312500  0.031250     24.000000
  0.375000  0.343750  0.031250     24.000000
  0.406250  0.343750  0.031250     48.000000
  0.437500  0.343750  0.031250     48.000000
  0.468750  0.343750  0.031250     48.000000
  0.500000  0.343750  0.031250     48.000000
 -0.468750  0.343750  0.031250     48.000000
 -0.437500  0.343750  0.031250     48.000000
 -0.406250  0.343750  0.031250     48.000000
 -0.375000  0.343750  0.031250     48.000000
 -0.343750  0.343750  0.031250     48.000000
 -0.312500  0.343750  0.031250     24.000000
  0.406250  0.375000  0.031250     24.000000
  0.437500  0.375000  0.031250     48.000000
  0.468750  0.375000  0.031250     48.000000
  0.500000  0.375000  0.031250     48.000000
 -0.468750  0.375000  0.031250     48.000000
 -0.437500  0.375000  0.031250     48.000000
 -0.406250  0.375000  0.031250     48.000000
 -0.375000  0.375000  0.031250     48.000000
 -0.343750  0.375000  0.031250     24.000000
  0.437500  0.406250  0.031250     24.000000
  0.468750  0.406250  0.031250     48.000000
  0.500000  0.406250  0.031250     48.000000
 -0.468750  0.406250  0.031250     48.000000
 -0.437500  0.406250  0.031250     48.000000
 -0.406250  0.406250  0.031250     48.000000
 -0.375000  0.406250  0.031250     24.000000
  0.468750  0.437500  0.031250     24.000000
  0.500000  0.437500  0.031250     48.000000
 -0.468750  0.437500  0.031250     48.000000
 -0.437500  0.437500  0.031250     48.000000
 -0.406250  0.437500  0.031250     24.000000
  0.500000  0.468750  0.031250     24.000000
 -0.468750  0.468750  0.031250     48.000000
 -0.437500  0.468750  0.031250     24.000000
 -0.468750  0.500000  0.031250     12.000000
  0.187500  0.125000  0.062500     24.000000
  0.218750  0.125000  0.062500     48.000000
  0.250000  0.125000  0.062500     48.000000
  0.281250  0.125000  0.062500     48.000000
  0.312500  0.125000  0.062500     48.000000
  0.343750  0.125000  0.062500     48.000000
  0.375000  0.125000  0.062500     48.000000
  0.406250  0.125000  0.062500     48.000000
  0.437500  0.125000  0.062500     48.000000
  0.468750  0.125000  0.062500     48.000000
  0.500000  0.125000  0.062500     48.000000
 -0.468750  0.125000  0.062500     48.000000
 -0.437500  0.125000  0.062500     24.000000
  0.218750  0.156250  0.062500     24.000000
  0.250000  0.156250  0.062500     48.000000
  0.281250  0.156250  0.062500     48.000000
  0.312500  0.156250  0.062500     48.000000
  0.343750  0.156250  0.062500     48.000000
  0.375000  0.156250  0.062500     48.000000
  0.406250  0.156250  0.062500     48.000000
  0.437500  0.156250  0.062500     48.000000
  0.468750  0.156250  0.062500     48.000000
  0.500000  0.156250  0.062500     48.000000
 -0.468750  0.156250  0.062500     48.000000
 -0.437500  0.156250  0.062500     48.000000
 -0.406250  0.156250  0.062500     48.000000
 -0.375000  0.156250  0.062500     48.000000
 -0.343750  0.156250  0.062500     48.000000
 -0.312500  0.156250  0.062500     48.000000
 -0.281250  0.156250  0.062500     48.000000
 -0.250000  0.156250  0.062500     48.000000
 -0.218750  0.156250  0.062500     48.000000
 -0.187500  0.156250  0.062500     48.000000
 -0.156250  0.156250  0.062500     48.000000
 -0.125000  0.156250  0.062500     48.000000
 -0.093750  0.156250  0.062500     24.000000
  0.250000  0.187500  0.062500     24.000000
  0.281250  0.187500  0.062500     48.000000
  0.312500  0.187500  0.062500     48.000000
  0.343750  0.187500  0.062500     48.000000
  0.375000  0.187500  0.062500     48.000000
  0.406250  0.187500  0.062500     48.000000
  0.437500  0.187500  0.062500     48.000000
  0.468750  0.187500  0.062500     48.000000
  0.500000  0.187500  0.062500     48.000000
 -0.468750  0.187500  0.062500     48.000000
 -0.437500  0.187500  0.062500     48.000000
 -0.406250  0.187500  0.062500     48.000000
 -0.375000  0.187500  0.062500     48.000000
 -0.343750  0.187500  0.062500     48.000000
 -0.312500  0.187500  0.062500     48.000000
 -0.281250  0.187500  0.062500     48.000000
 -0.250000  0.187500  0.062500     48.000000
 -0.218750  0.187500  0.062500     48.000000
 -0.187500  0.187500  0.062500     48.000000
 -0.156250  0.187500  0.062500     48.000000
 -0.125000  0.187500  0.062500     24.000000
  0.281250  0.218750  0.062500     24.000000
  0.312500  0.218750  0.062500     48.000000
  0.343750  0.218750  0.062500     48.000000
  0.375000  0.218750  0.062500     48.000000
  0.406250  0.218750  0.062500     48.000000
  0.437500  0.218750  0.062500     48.000000
  0.468750  0.218750  0.062500     48.000000
  0.500000  0.218750  0.062500     48.000000
 -0.468750  0.218750  0.062500     48.000000
 -0.437500  0.218750  0.062500     48.000000
 -0.406250  0.218750  0.062500     48.000000
 -0.375000  0.218750  0.062500     48.000000
 -0.343750  0.218750  0.062500     48.000000
 -0.312500  0.218750  0.062500     48.000000
 -0.281250  0.218750  0.062500     48.000000
 -0.250000  0.218750  0.062500     48.000000
 -0.218750  0.218750  0.062500     48.000000
 -0.187500  0.218750  0.062500     48.000000
 -0.156250  0.218750  0.062500     24.000000
  0.312500  0.250000  0.062500     24.000000
  0.343750  0.250000  0.062500     48.000000
  0.375000  0.250000  0.062500     48.000000
  0.406250  0.250000  0.062500     48.000000
  0.437500  0.250000  0.062500     48.000000
  0.468750  0.250000  0.062500     48.000000
  0.500000  0.250000  0.062500     48.000000
 -0.468750  0.250000  0.062500     48.000000
 -0.437500  0.250000  0.062500     48.000000
 -0.406250  0.250000  0.062500     48.000000
 -0.375000  0.250000  0.062500     48.000000
 -0.343750  0.250000  0.062500     48.000000
 -0.312500  0.250000  0.062500     48.000000
 -0.281250  0.250000  0.062500     48.000000
 -0.250000  0.250000  0.062500     48.000000
 -0.218750  0.250000  0.062500     48.000000
 -0.187500  0.250000  0.062500     24.000000
  0.343750  0.281250  0.062500     24.000000
  0.375000  0.281250  0.062500     48.000000
  0.406250  0.281250  0.062500     48.000000
  0.437500  0.281250  0.062500     48.000000
  0.468750  0.281250  0.062500     48.000000
  0.500000  0.281250  0.062500     48.000000
 -0.468750  0.281250  0.062500     48.000000
 -0.437500  0.281250  0.062500     48.000000
 -0.406250  0.281250  0.062500     48.000000
 -0.375000  0.281250  0.062500     48.000000
 -0.343750  0.281250  0.062500     48.000000
 -0.312500  0.281250  0.062500     48.000000
 -0.281250  0.281250  0.062500     48.000000
 -0.250000  0.281250  0.062500     48.000000
 -0.218750  0.281250  0.062500     24.000000
  0.375000  0.312500  0.062500     24.000000
  0.406250  0.312500  0.062500     48.000000
  0.437500  0.312500  0.062500     48.000000
  0.468750  0.312500  0.062500     48.000000
  0.500000  0.312500  0.062500     48.000000
 -0.468750  0.312500  0.062500     48.000000
 -0.437500  0.312500  0.062500     48.000000
 -0.406250  0.312500  0.062500     48.000000
 -0.375000  0.312500  0.062500     48.000000
 -0.343750  0.312500  0.062500     48.000000
 -0.312500  0.312500  0.062500     48.000000
 -0.281250  0.312500  0.062500     48.000000
 -0.250000  0.312500  0.062500     24.000000
  0.406250  0.343750  0.062500     24.000000
  0.437500  0.343750  0.062500     48.000000
  0.468750  0.343750  0.062500     48.000000
  0.500000  0.343750  0.062500     48.000000
 -0.468750  0.343750  0.062500     48.000000
 -0.437500  0.343750  0.062500     48.000000
 -0.406250  0.343750  0.062500     48.000000
 -0.375000  0.343750  0.062500     48.000000
 -0.343750  0.343750  0.062500     48.000000
 -0.312500  0.343750  0.062500     48.000000
 -0.281250  0.343750  0.062500     24.000000
  0.437500  0.375000  0.062500     24.000000
  0.468750  0.375000  0.062500     48.000000
  0.500000  0.375000  0.062500     48.000000
 -0.468750  0.375000  0.062500     48.000000
 -0.437500  0.375000  0.062500     48.000000
 -0.406250  0.375000  0.062500     48.000000
 -0.375000  0.375000  0.062500     48.000000
 -0.343750  0.375000  0.062500     48.000000
 -0.312500  0.375000  0.062500     24.000000
  0.468750  0.406250  0.062500     24.000000
  0.500000  0.406250  0.062500     48.000000
 -0.468750  0.406250  0.062500     48.000000
 -0.437500  0.406250  0.062500     48.000000
 -0.406250  0.406250  0.062500     48.000000
 -0.375000  0.406250  0.062500     48.000000
 -0.343750  0.406250  0.062500     24.000000
  0.500000  0.437500  0.062500     24.000000
 -0.468750  0.437500  0.062500     48.000000
 -0.437500  0.437500  0.062500     48.000000
 -0.406250  0.437500  0.062500     48.000000
 -0.375000  0.437500  0.062500     24.000000
 -0.468750  0.468750  0.062500     24.000000
 -0.437500  0.468750  0.062500     48.000000
 -0.406250  0.468750  0.062500     24.000000
 -0.437500  0.500000  0.062500     12.000000
  0.281250  0.187500  0.093750     24.000000
  0.312500  0.187500  0.093750     48.000000
  0.343750  0.187500  0.093750     48.000000
  0.375000  0.187500  0.093750     48.000000
  0.406250  0.187500  0.093750     48.000000
  0.437500  0.187500  0.093750     48.000000
  0.468750  0.187500  0.093750     48.000000
  0.500000  0.187500  0.093750     48.000000
 -0.468750  0.187500  0.093750     48.000000
 -0.437500  0.187500  0.093750     48.000000
 -0.406250  0.187500  0.093750     24.000000
  0.312500  0.218750  0.093750     24.000000
  0.343750  0.218750  0.093750     48.000000
  0.375000  0.218750  0.093750     48.000000
  0.406250  0.218750  0.093750     48.000000
  0.437500  0.218750  0.093750     48.000000
  0.468750  0.218750  0.093750     48.000000
  0.500000  0.218750  0.093750     48.000000
 -0.468750  0.218750  0.093750     48.000000
 -0.437500  0.218750  0.093750     48.000000
 -0.406250  0.218750  0.093750     48.000000
 -0.375000  0.218750  0.093750     48.000000
 -0.343750  0.218750  0.093750     48.000000
 -0.312500  0.218750  0.093750     48.000000
 -0.281250  0.218750  0.093750     48.000000
 -0.250000  0.218750  0.093750     48.000000
 -0.218750  0.218750  0.093750     48.000000
 -0.187500  0.218750  0.093750     48.000000
 -0.156250  0.218750  0.093750     48.000000
 -0.125000  0.218750  0.093750     24.000000
  0.343750  0.250000  0.093750     24.000000
  0.375000  0.250000  0.093750     48.000000
  0.406250  0.250000  0.093750     48.000000
  0.437500  0.250000  0.093750     48.000000
  0.468750  0.250000  0.093750     48.000000
  0.500000  0.250000  0.093750     48.000000
 -0.468750  0.250000  0.093750     48.000000
 -0.437500  0.250000  0.093750     48.000000
 -0.406250  0.250000  0.093750     48.000000
 -0.375000  0.250000  0.093750     48.000000
 -0.343750  0.250000  0.093750     48.000000
 -0.312500  0.250000  0.093750     48.000000
 -0.281250  0.250000  0.093750     48.000000
 -0.250000  0.250000  0.093750     48.000000
 -0.218750  0.250000  0.093750     48.000000
 -0.187500  0.250000  0.093750     48.000000
 -0.156250  0.250000  0.093750     24.000000
  0.375000  0.281250  0.093750     24.000000
  0.406250  0.281250  0.093750     48.000000
  0.437500  0.281250  0.093750     48.000000
  0.468750  0.281250  0.093750     48.000000
  0.500000  0.281250  0.093750     48.000000
 -0.468750  0.281250  0.093750     48.000000
 -0.437500  0.281250  0.093750     48.000000
 -0.406250  0.281250  0.093750     48.000000
 -0.375000  0.281250  0.093750     48.000000
 -0.343750  0.281250  0.093750     48.000000
 -0.312500  0.281250  0.093750     48.000000
 -0.281250  0.281250  0.093750     48.000000
 -0.250000  0.281250  0.093750     48.000000
 -0.218750  0.281250  0.093750     48.000000
 -0.187500  0.281250  0.093750     24.000000
  0.406250  0.312500  0.093750     24.000000
  0.437500  0.312500  0.093750     48.000000
  0.468750  0.312500  0.093750     48.000000
  0.500000  0.312500  0.093750     48.000000
 -0.468750  0.312500  0.093750     48.000000
 -0.437500  0.312500  0.093750     48.000000
 -0.406250  0.312500  0.093750     48.000000
 -0.375000  0.312500  0.093750     48.000000
 -0.343750  0.312500  0.093750     48.000000
 -0.312500  0.312500  0.093750     48.000000
 -0.281250  0.312500  0.093750     48.000000
 -0.250000  0.312500  0.093750     48.000000
 -0.218750  0.312500  0.093750     24.000000
  0.437500  0.343750  0.093750     24.000000
  0.468750  0.343750  0.093750     48.000000
  0.500000  0.343750  0.093750     48.000000
 -0.468750  0.343750  0.093750     48.000000
 -0.437500  0.343750  0.093750     48.000000
 -0.406250  0.343750  0.093750     48.000000
 -0.375000  0.343750  0.093750     48.000000
 -0.343750  0.343750  0.093750     48.000000
 -0.312500  0.343750  0.093750     48.000000
 -0.281250  0.343750  0.093750     48.000000
 -0.250000  0.343750  0.093750     24.000000
  0.468750  0.375000  0.093750     24.000000
  0.500000  0.375000  0.093750     48.000000
 -0.468750  0.375000  0.093750     48.000000
 -0.437500  0.375000  0.093750     48.000000
 -0.406250  0.375000  0.093750     48.000000
 -0.375000  0.375000  0.093750     48.000000
 -0.343750  0.375000  0.093750     48.000000
 -0.312500  0.375000  0.093750     48.000000
 -0.281250  0.375000  0.093750     24.000000
  0.500000  0.406250  0.093750     24.000000
 -0.468750  0.406250  0.093750     48.000000
 -0.437500  0.406250  0.093750     48.000000
 -0.406250  0.406250  0.093750     48.000000
 -0.375000  0.406250  0.093750     48.000000
 -0.343750  0.406250  0.093750     48.000000
 -0.312500  0.406250  0.093750     24.000000
 -0.468750  0.437500  0.093750     24.000000
 -0.437500  0.437500  0.093750     48.000000
 -0.406250  0.437500  0.093750     48.000000
 -0.375000  0.437500  0.093750     48.000000
 -0.343750  0.437500  0.093750     24.000000
 -0.437500  0.468750  0.093750     24.000000
 -0.406250  0.468750  0.093750     48.000000
 -0.375000  0.468750  0.093750     24.000000
 -0.406250  0.500000  0.093750     12.000000
  0.375000  0.250000  0.125000     24.000000
  0.406250  0.250000  0.125000     48.000000
  0.437500  0.250000  0.125000     48.000000
  0.468750  0.250000  0.125000     48.000000
  0.500000  0.250000  0.125000     48.000000
 -0.468750  0.250000  0.125000     48.000000
 -0.437500  0.250000  0.125000     48.000000
 -0.406250  0.250000  0.125000     48.000000
 -0.375000  0.250000  0.125000     24.000000
  0.406250  0.281250  0.125000     24.000000
  0.437500  0.281250  0.125000     48.000000
  0.468750  0.281250  0.125000     48.000000
  0.500000  0.281250  0.125000     48.000000
 -0.468750  0.281250  0.125000     48.000000
 -0.437500  0.281250  0.125000     48.000000
 -0.406250  0.281250  0.125000     48.000000
 -0.375000  0.281250  0.125000     48.000000
 -0.343750  0.281250  0.125000     48.000000
 -0.312500  0.281250  0.125000     48.000000
 -0.281250  0.281250  0.125000     48.000000
 -0.250000  0.281250  0.125000     48.000000
 -0.218750  0.281250  0.125000     48.000000
 -0.187500  0.281250  0.125000     48.000000
 -0.156250  0.281250  0.125000     24.000000
  0.437500  0.312500  0.125000     24.000000
  0.468750  0.312500  0.125000     48.000000
  0.500000  0.312500  0.125000     48.000000
 -0.468750  0.312500  0.125000     48.000000
 -0.437500  0.312500  0.125000     48.000000
 -0.406250  0.312500  0.125000     48.000000
 -0.375000  0.312500  0.125000     48.000000
 -0.343750  0.312500  0.125000     48.000000
 -0.312500  0.312500  0.125000     48.000000
 -0.281250  0.312500  0.125000     48.000000
 -0.250000  0.312500  0.125000     48.000000
 -0.218750  0.312500  0.125000     48.000000
 -0.187500  0.312500  0.125000     24.000000
  0.468750  0.343750  0.125000     24.000000
  0.500000  0.343750  0.125000     48.000000
 -0.468750  0.343750  0.125000     48.000000
 -0.437500  0.343750  0.125000     48.000000
 -0.406250  0.343750  0.125000     48.000000
 -0.375000  0.343750  0.125000     48.000000
 -0.343750  0.343750  0.125000     48.000000
 -0.312500  0.343750  0.125000     48.000000
 -0.281250  0.343750  0.125000     48.000000
 -0.250000  0.343750  0.125000     48.000000
 -0.218750  0.343750  0.125000     24.000000
  0.500000  0.375000  0.125000     24.000000
 -0.468750  0.375000  0.125000     48.000000
 -0.437500  0.375000  0.125000     48.000000
 -0.406250  0.375000  0.125000     48.000000
 -0.375000  0.375000  0.125000     48.000000
 -0.343750  0.375000  0.125000     48.000000
 -0.312500  0.375000  0.125000     48.000000
 -0.281250  0.375000  0.125000     48.000000
 -0.250000  0.375000  0.125000     24.000000
 -0.468750  0.406250  0.125000     24.000000
 -0.437500  0.406250  0.125000     48.000000
 -0.406250  0.406250  0.125000     48.000000
 -0.375000  0.406250  0.125000     48.000000
 -0.343750  0.406250  0.125000     48.000000
 -0.312500  0.406250  0.125000     48.000000
 -0.281250  0.406250  0.125000     24.000000
 -0.437500  0.437500  0.125000     24.000000
 -0.406250  0.437500  0.125000     48.000000
 -0.375000  0.437500  0.125000     48.000000
 -0.343750  0.437500  0.125000     48.000000
 -0.312500  0.437500  0.125000     24.000000
 -0.406250  0.468750  0.125000     24.000000
 -0.375000  0.468750  0.125000     48.000000
 -0.343750  0.468750  0.125000     24.000000
 -0.375000  0.500000  0.125000     12.000000
  0.468750  0.312500  0.156250     24.000000
  0.500000  0.312500  0.156250     48.000000
 -0.468750  0.312500  0.156250     48.000000
 -0.437500  0.312500  0.156250     48.000000
 -0.406250  0.312500  0.156250     48.000000
 -0.375000  0.312500  0.156250     48.000000
 -0.343750  0.312500  0.156250     24.000000
  0.500000  0.343750  0.156250     24.000000
 -0.468750  0.343750  0.156250     48.000000
 -0.437500  0.343750  0.156250     48.000000
 -0.406250  0.343750  0.156250     48.000000
 -0.375000  0.343750  0.156250     48.000000
 -0.343750  0.343750  0.156250     48.000000
 -0.312500  0.343750  0.156250     48.000000
 -0.281250  0.343750  0.156250     48.000000
 -0.250000  0.343750  0.156250     48.000000
 -0.218750  0.343750  0.156250     48.000000
 -0.187500  0.343750  0.156250     24.000000
 -0.468750  0.375000  0.156250     24.000000
 -0.437500  0.375000  0.156250     48.000000
 -0.406250  0.375000  0.156250     48.000000
 -0.375000  0.375000  0.156250     48.000000
 -0.343750  0.375000  0.156250     48.000000
 -0.312500  0.375000  0.156250     48.000000
 -0.281250  0.375000  0.156250     48.000000
 -0.250000  0.375000  0.156250     48.000000
 -0.218750  0.375000  0.156250     24.000000
 -0.437500  0.406250  0.156250     24.000000
 -0.406250  0.406250  0.156250     48.000000
 -0.375000  0.406250  0.156250     48.000000
 -0.343750  0.406250  0.156250     48.000000
 -0.312500  0.406250  0.156250     48.000000
 -0.281250  0.406250  0.156250     48.000000
 -0.250000  0.406250  0.156250     24.000000
 -0.406250  0.437500  0.156250     24.000000
 -0.375000  0.437500  0.156250     48.000000
 -0.343750  0.437500  0.156250     48.000000
 -0.312500  0.437500  0.156250     48.000000
 -0.281250  0.437500  0.156250     24.000000
 -0.375000  0.468750  0.156250     24.000000
 -0.343750  0.468750  0.156250     48.000000
 -0.312500  0.468750  0.156250     24.000000
 -0.343750  0.500000  0.156250     12.000000
 -0.437500  0.375000  0.187500     24.000000
 -0.406250  0.375000  0.187500     48.000000
 -0.375000  0.375000  0.187500     48.000000
 -0.343750  0.375000  0.187500     48.000000
 -0.312500  0.375000  0.187500     24.000000
 -0.406250  0.406250  0.187500     24.000000
 -0.375000  0.406250  0.187500     48.000000
 -0.343750  0.406250  0.187500     48.000000
 -0.312500  0.406250  0.187500     48.000000
 -0.281250  0.406250  0.187500     48.000000
 -0.250000  0.406250  0.187500     48.000000
 -0.218750  0.406250  0.187500     24.000000
 -0.375000  0.437500  0.187500     24.000000
 -0.343750  0.437500  0.187500     48.000000
 -0.312500  0.437500  0.187500     48.000000
 -0.281250  0.437500  0.187500     48.000000
 -0.250000  0.437500  0.187500     24.000000
 -0.343750  0.468750  0.187500     24.000000
 -0.312500  0.468750  0.187500     48.000000
 -0.281250  0.468750  0.187500     24.000000
 -0.312500  0.500000  0.187500     12.000000
 -0.343750  0.437500  0.218750     24.000000
 -0.312500  0.437500  0.218750     48.000000
 -0.281250  0.437500  0.218750     24.000000
 -0.312500  0.468750  0.218750     24.000000
 -0.281250  0.468750  0.218750     48.000000
 -0.250000  0.468750  0.218750     24.000000
 -0.281250  0.500000  0.218750     12.000000
 -0.250000  0.500000  0.250000      6.000000
 
 Following cartesian coordinates:
            Coordinates               Weight
  0.000000  0.000000  0.000000      1.000000
 -0.031250  0.031250  0.031250      8.000000
 -0.062500  0.062500  0.062500      8.000000
 -0.093750  0.093750  0.093750      8.000000
 -0.125000  0.125000  0.125000      8.000000
 -0.156250  0.156250  0.156250      8.000000
 -0.187500  0.187500  0.187500      8.000000
 -0.218750  0.218750  0.218750      8.000000
 -0.250000  0.250000  0.250000      8.000000
 -0.281250  0.281250  0.281250      8.000000
 -0.312500  0.312500  0.312500      8.000000
 -0.343750  0.343750  0.343750      8.000000
 -0.375000  0.375000  0.375000      8.000000
 -0.406250  0.406250  0.406250      8.000000
 -0.437500  0.437500  0.437500      8.000000
 -0.468750  0.468750  0.468750      8.000000
 -0.500000  0.500000  0.500000      4.000000
  0.000000  0.000000  0.062500      6.000000
 -0.031250  0.031250  0.093750     24.000000
 -0.062500  0.062500  0.125000     24.000000
 -0.093750  0.093750  0.156250     24.000000
 -0.125000  0.125000  0.187500     24.000000
 -0.156250  0.156250  0.218750     24.000000
 -0.187500  0.187500  0.250000     24.000000
 -0.218750  0.218750  0.281250     24.000000
 -0.250000  0.250000  0.312500     24.000000
 -0.281250  0.281250  0.343750     24.000000
 -0.312500  0.312500  0.375000     24.000000
 -0.343750  0.343750  0.406250     24.000000
 -0.375000  0.375000  0.437500     24.000000
 -0.406250  0.406250  0.468750     24.000000
 -0.437500  0.437500  0.500000     24.000000
 -0.468750  0.468750  0.531250     24.000000
  0.500000 -0.500000 -0.437500     24.000000
  0.468750 -0.468750 -0.406250     24.000000
  0.437500 -0.437500 -0.375000     24.000000
  0.406250 -0.406250 -0.343750     24.000000
  0.375000 -0.375000 -0.312500     24.000000
  0.343750 -0.343750 -0.281250     24.000000
  0.312500 -0.312500 -0.250000     24.000000
  0.281250 -0.281250 -0.218750     24.000000
  0.250000 -0.250000 -0.187500     24.000000
  0.218750 -0.218750 -0.156250     24.000000
  0.187500 -0.187500 -0.125000     24.000000
  0.156250 -0.156250 -0.093750     24.000000
  0.125000 -0.125000 -0.062500     24.000000
  0.093750 -0.093750 -0.031250     24.000000
  0.062500 -0.062500  0.000000     12.000000
  0.000000  0.000000  0.125000      6.000000
 -0.031250  0.031250  0.156250     24.000000
 -0.062500  0.062500  0.187500     24.000000
 -0.093750  0.093750  0.218750     24.000000
 -0.125000  0.125000  0.250000     24.000000
 -0.156250  0.156250  0.281250     24.000000
 -0.187500  0.187500  0.312500     24.000000
 -0.218750  0.218750  0.343750     24.000000
 -0.250000  0.250000  0.375000     24.000000
 -0.281250  0.281250  0.406250     24.000000
 -0.312500  0.312500  0.437500     24.000000
 -0.343750  0.343750  0.468750     24.000000
 -0.375000  0.375000  0.500000     24.000000
 -0.406250  0.406250  0.531250     24.000000
 -0.437500  0.437500  0.562500     24.000000
  0.531250 -0.531250 -0.406250     24.000000
  0.500000 -0.500000 -0.375000     24.000000
  0.468750 -0.468750 -0.343750     24.000000
  0.437500 -0.437500 -0.312500     24.000000
  0.406250 -0.406250 -0.281250     24.000000
  0.375000 -0.375000 -0.250000     24.000000
  0.343750 -0.343750 -0.218750     24.000000
  0.312500 -0.312500 -0.187500     24.000000
  0.281250 -0.281250 -0.156250     24.000000
  0.250000 -0.250000 -0.125000     24.000000
  0.218750 -0.218750 -0.093750     24.000000
  0.187500 -0.187500 -0.062500     24.000000
  0.156250 -0.156250 -0.031250     24.000000
  0.125000 -0.125000  0.000000     12.000000
  0.000000  0.000000  0.187500      6.000000
 -0.031250  0.031250  0.218750     24.000000
 -0.062500  0.062500  0.250000     24.000000
 -0.093750  0.093750  0.281250     24.000000
 -0.125000  0.125000  0.312500     24.000000
 -0.156250  0.156250  0.343750     24.000000
 -0.187500  0.187500  0.375000     24.000000
 -0.218750  0.218750  0.406250     24.000000
 -0.250000  0.250000  0.437500     24.000000
 -0.281250  0.281250  0.468750     24.000000
 -0.312500  0.312500  0.500000     24.000000
 -0.343750  0.343750  0.531250     24.000000
 -0.375000  0.375000  0.562500     24.000000
 -0.406250  0.406250  0.593750     24.000000
  0.562500 -0.562500 -0.375000     24.000000
  0.531250 -0.531250 -0.343750     24.000000
  0.500000 -0.500000 -0.312500     24.000000
  0.468750 -0.468750 -0.281250     24.000000
  0.437500 -0.437500 -0.250000     24.000000
  0.406250 -0.406250 -0.218750     24.000000
  0.375000 -0.375000 -0.187500     24.000000
  0.343750 -0.343750 -0.156250     24.000000
  0.312500 -0.312500 -0.125000     24.000000
  0.281250 -0.281250 -0.093750     24.000000
  0.250000 -0.250000 -0.062500     24.000000
  0.218750 -0.218750 -0.031250     24.000000
  0.187500 -0.187500  0.000000     12.000000
  0.000000  0.000000  0.250000      6.000000
 -0.031250  0.031250  0.281250     24.000000
 -0.062500  0.062500  0.312500     24.000000
 -0.093750  0.093750  0.343750     24.000000
 -0.125000  0.125000  0.375000     24.000000
 -0.156250  0.156250  0.406250     24.000000
 -0.187500  0.187500  0.437500     24.000000
 -0.218750  0.218750  0.468750     24.000000
 -0.250000  0.250000  0.500000     24.000000
 -0.281250  0.281250  0.531250     24.000000
 -0.312500  0.312500  0.562500     24.000000
 -0.343750  0.343750  0.593750     24.000000
 -0.375000  0.375000  0.625000     24.000000
  0.593750 -0.593750 -0.343750     24.000000
  0.562500 -0.562500 -0.312500     24.000000
  0.531250 -0.531250 -0.281250     24.000000
  0.500000 -0.500000 -0.250000     24.000000
  0.468750 -0.468750 -0.218750     24.000000
  0.437500 -0.437500 -0.187500     24.000000
  0.406250 -0.406250 -0.156250     24.000000
  0.375000 -0.375000 -0.125000     24.000000
  0.343750 -0.343750 -0.093750     24.000000
  0.312500 -0.312500 -0.062500     24.000000
  0.281250 -0.281250 -0.031250     24.000000
  0.250000 -0.250000  0.000000     12.000000
  0.000000  0.000000  0.312500      6.000000
 -0.031250  0.031250  0.343750     24.000000
 -0.062500  0.062500  0.375000     24.000000
 -0.093750  0.093750  0.406250     24.000000
 -0.125000  0.125000  0.437500     24.000000
 -0.156250  0.156250  0.468750     24.000000
 -0.187500  0.187500  0.500000     24.000000
 -0.218750  0.218750  0.531250     24.000000
 -0.250000  0.250000  0.562500     24.000000
 -0.281250  0.281250  0.593750     24.000000
 -0.312500  0.312500  0.625000     24.000000
 -0.343750  0.343750  0.656250     24.000000
  0.625000 -0.625000 -0.312500     24.000000
  0.593750 -0.593750 -0.281250     24.000000
  0.562500 -0.562500 -0.250000     24.000000
  0.531250 -0.531250 -0.218750     24.000000
  0.500000 -0.500000 -0.187500     24.000000
  0.468750 -0.468750 -0.156250     24.000000
  0.437500 -0.437500 -0.125000     24.000000
  0.406250 -0.406250 -0.093750     24.000000
  0.375000 -0.375000 -0.062500     24.000000
  0.343750 -0.343750 -0.031250     24.000000
  0.312500 -0.312500  0.000000     12.000000
  0.000000  0.000000  0.375000      6.000000
 -0.031250  0.031250  0.406250     24.000000
 -0.062500  0.062500  0.437500     24.000000
 -0.093750  0.093750  0.468750     24.000000
 -0.125000  0.125000  0.500000     24.000000
 -0.156250  0.156250  0.531250     24.000000
 -0.187500  0.187500  0.562500     24.000000
 -0.218750  0.218750  0.593750     24.000000
 -0.250000  0.250000  0.625000     24.000000
 -0.281250  0.281250  0.656250     24.000000
 -0.312500  0.312500  0.687500     24.000000
  0.656250 -0.656250 -0.281250     24.000000
  0.625000 -0.625000 -0.250000     24.000000
  0.593750 -0.593750 -0.218750     24.000000
  0.562500 -0.562500 -0.187500     24.000000
  0.531250 -0.531250 -0.156250     24.000000
  0.500000 -0.500000 -0.125000     24.000000
  0.468750 -0.468750 -0.093750     24.000000
  0.437500 -0.437500 -0.062500     24.000000
  0.406250 -0.406250 -0.031250     24.000000
  0.375000 -0.375000  0.000000     12.000000
  0.000000  0.000000  0.437500      6.000000
 -0.031250  0.031250  0.468750     24.000000
 -0.062500  0.062500  0.500000     24.000000
 -0.093750  0.093750  0.531250     24.000000
 -0.125000  0.125000  0.562500     24.000000
 -0.156250  0.156250  0.593750     24.000000
 -0.187500  0.187500  0.625000     24.000000
 -0.218750  0.218750  0.656250     24.000000
 -0.250000  0.250000  0.687500     24.000000
 -0.281250  0.281250  0.718750     24.000000
  0.687500 -0.687500 -0.250000     24.000000
  0.656250 -0.656250 -0.218750     24.000000
  0.625000 -0.625000 -0.187500     24.000000
  0.593750 -0.593750 -0.156250     24.000000
  0.562500 -0.562500 -0.125000     24.000000
  0.531250 -0.531250 -0.093750     24.000000
  0.500000 -0.500000 -0.062500     24.000000
  0.468750 -0.468750 -0.031250     24.000000
  0.437500 -0.437500  0.000000     12.000000
  0.000000  0.000000  0.500000      6.000000
 -0.031250  0.031250  0.531250     24.000000
 -0.062500  0.062500  0.562500     24.000000
 -0.093750  0.093750  0.593750     24.000000
 -0.125000  0.125000  0.625000     24.000000
 -0.156250  0.156250  0.656250     24.000000
 -0.187500  0.187500  0.687500     24.000000
 -0.218750  0.218750  0.718750     24.000000
 -0.250000  0.250000  0.750000     24.000000
  0.718750 -0.718750 -0.218750     24.000000
  0.687500 -0.687500 -0.187500     24.000000
  0.656250 -0.656250 -0.156250     24.000000
  0.625000 -0.625000 -0.125000     24.000000
  0.593750 -0.593750 -0.093750     24.000000
  0.562500 -0.562500 -0.062500     24.000000
  0.531250 -0.531250 -0.031250     24.000000
  0.500000 -0.500000  0.000000     12.000000
  0.000000  0.000000  0.562500      6.000000
 -0.031250  0.031250  0.593750     24.000000
 -0.062500  0.062500  0.625000     24.000000
 -0.093750  0.093750  0.656250     24.000000
 -0.125000  0.125000  0.687500     24.000000
 -0.156250  0.156250  0.718750     24.000000
 -0.187500  0.187500  0.750000     24.000000
 -0.218750  0.218750  0.781250     24.000000
  0.750000 -0.750000 -0.187500     24.000000
  0.718750 -0.718750 -0.156250     24.000000
  0.687500 -0.687500 -0.125000     24.000000
  0.656250 -0.656250 -0.093750     24.000000
  0.625000 -0.625000 -0.062500     24.000000
  0.593750 -0.593750 -0.031250     24.000000
  0.562500 -0.562500  0.000000     12.000000
  0.000000  0.000000  0.625000      6.000000
 -0.031250  0.031250  0.656250     24.000000
 -0.062500  0.062500  0.687500     24.000000
 -0.093750  0.093750  0.718750     24.000000
 -0.125000  0.125000  0.750000     24.000000
 -0.156250  0.156250  0.781250     24.000000
 -0.187500  0.187500  0.812500     24.000000
  0.781250 -0.781250 -0.156250     24.000000
  0.750000 -0.750000 -0.125000     24.000000
  0.718750 -0.718750 -0.093750     24.000000
  0.687500 -0.687500 -0.062500     24.000000
  0.656250 -0.656250 -0.031250     24.000000
  0.625000 -0.625000  0.000000     12.000000
  0.000000  0.000000  0.687500      6.000000
 -0.031250  0.031250  0.718750     24.000000
 -0.062500  0.062500  0.750000     24.000000
 -0.093750  0.093750  0.781250     24.000000
 -0.125000  0.125000  0.812500     24.000000
 -0.156250  0.156250  0.843750     24.000000
  0.812500 -0.812500 -0.125000     24.000000
  0.781250 -0.781250 -0.093750     24.000000
  0.750000 -0.750000 -0.062500     24.000000
  0.718750 -0.718750 -0.031250     24.000000
  0.687500 -0.687500  0.000000     12.000000
  0.000000  0.000000  0.750000      6.000000
 -0.031250  0.031250  0.781250     24.000000
 -0.062500  0.062500  0.812500     24.000000
 -0.093750  0.093750  0.843750     24.000000
 -0.125000  0.125000  0.875000     24.000000
  0.843750 -0.843750 -0.093750     24.000000
  0.812500 -0.812500 -0.062500     24.000000
  0.781250 -0.781250 -0.031250     24.000000
  0.750000 -0.750000  0.000000     12.000000
  0.000000  0.000000  0.812500      6.000000
 -0.031250  0.031250  0.843750     24.000000
 -0.062500  0.062500  0.875000     24.000000
 -0.093750  0.093750  0.906250     24.000000
  0.875000 -0.875000 -0.062500     24.000000
  0.843750 -0.843750 -0.031250     24.000000
  0.812500 -0.812500  0.000000     12.000000
  0.000000  0.000000  0.875000      6.000000
 -0.031250  0.031250  0.906250     24.000000
 -0.062500  0.062500  0.937500     24.000000
  0.906250 -0.906250 -0.031250     24.000000
  0.875000 -0.875000  0.000000     12.000000
  0.000000  0.000000  0.937500      6.000000
 -0.031250  0.031250  0.968750     24.000000
  0.937500 -0.937500  0.000000     12.000000
  0.000000  0.000000  1.000000      3.000000
  0.000000  0.062500  0.125000     24.000000
 -0.031250  0.093750  0.156250     48.000000
 -0.062500  0.125000  0.187500     48.000000
 -0.093750  0.156250  0.218750     48.000000
 -0.125000  0.187500  0.250000     48.000000
 -0.156250  0.218750  0.281250     48.000000
 -0.187500  0.250000  0.312500     48.000000
 -0.218750  0.281250  0.343750     48.000000
 -0.250000  0.312500  0.375000     48.000000
 -0.281250  0.343750  0.406250     48.000000
 -0.312500  0.375000  0.437500     48.000000
 -0.343750  0.406250  0.468750     48.000000
 -0.375000  0.437500  0.500000     48.000000
 -0.406250  0.468750  0.531250     48.000000
  0.562500 -0.500000 -0.437500     24.000000
  0.000000  0.062500  0.187500     24.000000
 -0.031250  0.093750  0.218750     48.000000
 -0.062500  0.125000  0.250000     48.000000
 -0.093750  0.156250  0.281250     48.000000
 -0.125000  0.187500  0.312500     48.000000
 -0.156250  0.218750  0.343750     48.000000
 -0.187500  0.250000  0.375000     48.000000
 -0.218750  0.281250  0.406250     48.000000
 -0.250000  0.312500  0.437500     48.000000
 -0.281250  0.343750  0.468750     48.000000
 -0.312500  0.375000  0.500000     48.000000
 -0.343750  0.406250  0.531250     48.000000
 -0.375000  0.437500  0.562500     48.000000
  0.593750 -0.531250 -0.406250     48.000000
  0.562500 -0.500000 -0.375000     48.000000
  0.531250 -0.468750 -0.343750     48.000000
  0.500000 -0.437500 -0.312500     48.000000
  0.468750 -0.406250 -0.281250     48.000000
  0.437500 -0.375000 -0.250000     48.000000
  0.406250 -0.343750 -0.218750     48.000000
  0.375000 -0.312500 -0.187500     48.000000
  0.343750 -0.281250 -0.156250     48.000000
  0.312500 -0.250000 -0.125000     48.000000
  0.281250 -0.218750 -0.093750     48.000000
  0.250000 -0.187500 -0.062500     48.000000
  0.218750 -0.156250 -0.031250     48.000000
  0.187500 -0.125000  0.000000     24.000000
  0.000000  0.062500  0.250000     24.000000
 -0.031250  0.093750  0.281250     48.000000
 -0.062500  0.125000  0.312500     48.000000
 -0.093750  0.156250  0.343750     48.000000
 -0.125000  0.187500  0.375000     48.000000
 -0.156250  0.218750  0.406250     48.000000
 -0.187500  0.250000  0.437500     48.000000
 -0.218750  0.281250  0.468750     48.000000
 -0.250000  0.312500  0.500000     48.000000
 -0.281250  0.343750  0.531250     48.000000
 -0.312500  0.375000  0.562500     48.000000
 -0.343750  0.406250  0.593750     48.000000
  0.625000 -0.562500 -0.375000     48.000000
  0.593750 -0.531250 -0.343750     48.000000
  0.562500 -0.500000 -0.312500     48.000000
  0.531250 -0.468750 -0.281250     48.000000
  0.500000 -0.437500 -0.250000     48.000000
  0.468750 -0.406250 -0.218750     48.000000
  0.437500 -0.375000 -0.187500     48.000000
  0.406250 -0.343750 -0.156250     48.000000
  0.375000 -0.312500 -0.125000     48.000000
  0.343750 -0.281250 -0.093750     48.000000
  0.312500 -0.250000 -0.062500     48.000000
  0.281250 -0.218750 -0.031250     48.000000
  0.250000 -0.187500  0.000000     24.000000
  0.000000  0.062500  0.312500     24.000000
 -0.031250  0.093750  0.343750     48.000000
 -0.062500  0.125000  0.375000     48.000000
 -0.093750  0.156250  0.406250     48.000000
 -0.125000  0.187500  0.437500     48.000000
 -0.156250  0.218750  0.468750     48.000000
 -0.187500  0.250000  0.500000     48.000000
 -0.218750  0.281250  0.531250     48.000000
 -0.250000  0.312500  0.562500     48.000000
 -0.281250  0.343750  0.593750     48.000000
 -0.312500  0.375000  0.625000     48.000000
  0.656250 -0.593750 -0.343750     48.000000
  0.625000 -0.562500 -0.312500     48.000000
  0.593750 -0.531250 -0.281250     48.000000
  0.562500 -0.500000 -0.250000     48.000000
  0.531250 -0.468750 -0.218750     48.000000
  0.500000 -0.437500 -0.187500     48.000000
  0.468750 -0.406250 -0.156250     48.000000
  0.437500 -0.375000 -0.125000     48.000000
  0.406250 -0.343750 -0.093750     48.000000
  0.375000 -0.312500 -0.062500     48.000000
  0.343750 -0.281250 -0.031250     48.000000
  0.312500 -0.250000  0.000000     24.000000
  0.000000  0.062500  0.375000     24.000000
 -0.031250  0.093750  0.406250     48.000000
 -0.062500  0.125000  0.437500     48.000000
 -0.093750  0.156250  0.468750     48.000000
 -0.125000  0.187500  0.500000     48.000000
 -0.156250  0.218750  0.531250     48.000000
 -0.187500  0.250000  0.562500     48.000000
 -0.218750  0.281250  0.593750     48.000000
 -0.250000  0.312500  0.625000     48.000000
 -0.281250  0.343750  0.656250     48.000000
  0.687500 -0.625000 -0.312500     48.000000
  0.656250 -0.593750 -0.281250     48.000000
  0.625000 -0.562500 -0.250000     48.000000
  0.593750 -0.531250 -0.218750     48.000000
  0.562500 -0.500000 -0.187500     48.000000
  0.531250 -0.468750 -0.156250     48.000000
  0.500000 -0.437500 -0.125000     48.000000
  0.468750 -0.406250 -0.093750     48.000000
  0.437500 -0.375000 -0.062500     48.000000
  0.406250 -0.343750 -0.031250     48.000000
  0.375000 -0.312500  0.000000     24.000000
  0.000000  0.062500  0.437500     24.000000
 -0.031250  0.093750  0.468750     48.000000
 -0.062500  0.125000  0.500000     48.000000
 -0.093750  0.156250  0.531250     48.000000
 -0.125000  0.187500  0.562500     48.000000
 -0.156250  0.218750  0.593750     48.000000
 -0.187500  0.250000  0.625000     48.000000
 -0.218750  0.281250  0.656250     48.000000
 -0.250000  0.312500  0.687500     48.000000
  0.718750 -0.656250 -0.281250     48.000000
  0.687500 -0.625000 -0.250000     48.000000
  0.656250 -0.593750 -0.218750     48.000000
  0.625000 -0.562500 -0.187500     48.000000
  0.593750 -0.531250 -0.156250     48.000000
  0.562500 -0.500000 -0.125000     48.000000
  0.531250 -0.468750 -0.093750     48.000000
  0.500000 -0.437500 -0.062500     48.000000
  0.468750 -0.406250 -0.031250     48.000000
  0.437500 -0.375000  0.000000     24.000000
  0.000000  0.062500  0.500000     24.000000
 -0.031250  0.093750  0.531250     48.000000
 -0.062500  0.125000  0.562500     48.000000
 -0.093750  0.156250  0.593750     48.000000
 -0.125000  0.187500  0.625000     48.000000
 -0.156250  0.218750  0.656250     48.000000
 -0.187500  0.250000  0.687500     48.000000
 -0.218750  0.281250  0.718750     48.000000
  0.750000 -0.687500 -0.250000     48.000000
  0.718750 -0.656250 -0.218750     48.000000
  0.687500 -0.625000 -0.187500     48.000000
  0.656250 -0.593750 -0.156250     48.000000
  0.625000 -0.562500 -0.125000     48.000000
  0.593750 -0.531250 -0.093750     48.000000
  0.562500 -0.500000 -0.062500     48.000000
  0.531250 -0.468750 -0.031250     48.000000
  0.500000 -0.437500  0.000000     24.000000
  0.000000  0.062500  0.562500     24.000000
 -0.031250  0.093750  0.593750     48.000000
 -0.062500  0.125000  0.625000     48.000000
 -0.093750  0.156250  0.656250     48.000000
 -0.125000  0.187500  0.687500     48.000000
 -0.156250  0.218750  0.718750     48.000000
 -0.187500  0.250000  0.750000     48.000000
  0.781250 -0.718750 -0.218750     48.000000
  0.750000 -0.687500 -0.187500     48.000000
  0.718750 -0.656250 -0.156250     48.000000
  0.687500 -0.625000 -0.125000     48.000000
  0.656250 -0.593750 -0.093750     48.000000
  0.625000 -0.562500 -0.062500     48.000000
  0.593750 -0.531250 -0.031250     48.000000
  0.562500 -0.500000  0.000000     24.000000
  0.000000  0.062500  0.625000     24.000000
 -0.031250  0.093750  0.656250     48.000000
 -0.062500  0.125000  0.687500     48.000000
 -0.093750  0.156250  0.718750     48.000000
 -0.125000  0.187500  0.750000     48.000000
 -0.156250  0.218750  0.781250     48.000000
  0.812500 -0.750000 -0.187500     48.000000
  0.781250 -0.718750 -0.156250     48.000000
  0.750000 -0.687500 -0.125000     48.000000
  0.718750 -0.656250 -0.093750     48.000000
  0.687500 -0.625000 -0.062500     48.000000
  0.656250 -0.593750 -0.031250     48.000000
  0.625000 -0.562500  0.000000     24.000000
  0.000000  0.062500  0.687500     24.000000
 -0.031250  0.093750  0.718750     48.000000
 -0.062500  0.125000  0.750000     48.000000
 -0.093750  0.156250  0.781250     48.000000
 -0.125000  0.187500  0.812500     48.000000
  0.843750 -0.781250 -0.156250     48.000000
  0.812500 -0.750000 -0.125000     48.000000
  0.781250 -0.718750 -0.093750     48.000000
  0.750000 -0.687500 -0.062500     48.000000
  0.718750 -0.656250 -0.031250     48.000000
  0.687500 -0.625000  0.000000     24.000000
  0.000000  0.062500  0.750000     24.000000
 -0.031250  0.093750  0.781250     48.000000
 -0.062500  0.125000  0.812500     48.000000
 -0.093750  0.156250  0.843750     48.000000
  0.875000 -0.812500 -0.125000     48.000000
  0.843750 -0.781250 -0.093750     48.000000
  0.812500 -0.750000 -0.062500     48.000000
  0.781250 -0.718750 -0.031250     48.000000
  0.750000 -0.687500  0.000000     24.000000
  0.000000  0.062500  0.812500     24.000000
 -0.031250  0.093750  0.843750     48.000000
 -0.062500  0.125000  0.875000     48.000000
  0.906250 -0.843750 -0.093750     48.000000
  0.875000 -0.812500 -0.062500     48.000000
  0.843750 -0.781250 -0.031250     48.000000
  0.812500 -0.750000  0.000000     24.000000
  0.000000  0.062500  0.875000     24.000000
 -0.031250  0.093750  0.906250     48.000000
  0.937500 -0.875000 -0.062500     48.000000
  0.906250 -0.843750 -0.031250     48.000000
  0.875000 -0.812500  0.000000     24.000000
  0.000000  0.062500  0.937500     24.000000
  0.968750 -0.906250 -0.031250     48.000000
  0.937500 -0.875000  0.000000     24.000000
  1.000000 -0.937500  0.000000     12.000000
  0.000000  0.125000  0.250000     24.000000
 -0.031250  0.156250  0.281250     48.000000
 -0.062500  0.187500  0.312500     48.000000
 -0.093750  0.218750  0.343750     48.000000
 -0.125000  0.250000  0.375000     48.000000
 -0.156250  0.281250  0.406250     48.000000
 -0.187500  0.312500  0.437500     48.000000
 -0.218750  0.343750  0.468750     48.000000
 -0.250000  0.375000  0.500000     48.000000
 -0.281250  0.406250  0.531250     48.000000
 -0.312500  0.437500  0.562500     48.000000
  0.656250 -0.531250 -0.406250     48.000000
  0.625000 -0.500000 -0.375000     24.000000
  0.000000  0.125000  0.312500     24.000000
 -0.031250  0.156250  0.343750     48.000000
 -0.062500  0.187500  0.375000     48.000000
 -0.093750  0.218750  0.406250     48.000000
 -0.125000  0.250000  0.437500     48.000000
 -0.156250  0.281250  0.468750     48.000000
 -0.187500  0.312500  0.500000     48.000000
 -0.218750  0.343750  0.531250     48.000000
 -0.250000  0.375000  0.562500     48.000000
 -0.281250  0.406250  0.593750     48.000000
  0.687500 -0.562500 -0.375000     48.000000
  0.656250 -0.531250 -0.343750     48.000000
  0.625000 -0.500000 -0.312500     48.000000
  0.593750 -0.468750 -0.281250     48.000000
  0.562500 -0.437500 -0.250000     48.000000
  0.531250 -0.406250 -0.218750     48.000000
  0.500000 -0.375000 -0.187500     48.000000
  0.468750 -0.343750 -0.156250     48.000000
  0.437500 -0.312500 -0.125000     48.000000
  0.406250 -0.281250 -0.093750     48.000000
  0.375000 -0.250000 -0.062500     48.000000
  0.343750 -0.218750 -0.031250     48.000000
  0.312500 -0.187500  0.000000     24.000000
  0.000000  0.125000  0.375000     24.000000
 -0.031250  0.156250  0.406250     48.000000
 -0.062500  0.187500  0.437500     48.000000
 -0.093750  0.218750  0.468750     48.000000
 -0.125000  0.250000  0.500000     48.000000
 -0.156250  0.281250  0.531250     48.000000
 -0.187500  0.312500  0.562500     48.000000
 -0.218750  0.343750  0.593750     48.000000
 -0.250000  0.375000  0.625000     48.000000
  0.718750 -0.593750 -0.343750     48.000000
  0.687500 -0.562500 -0.312500     48.000000
  0.656250 -0.531250 -0.281250     48.000000
  0.625000 -0.500000 -0.250000     48.000000
  0.593750 -0.468750 -0.218750     48.000000
  0.562500 -0.437500 -0.187500     48.000000
  0.531250 -0.406250 -0.156250     48.000000
  0.500000 -0.375000 -0.125000     48.000000
  0.468750 -0.343750 -0.093750     48.000000
  0.437500 -0.312500 -0.062500     48.000000
  0.406250 -0.281250 -0.031250     48.000000
  0.375000 -0.250000  0.000000     24.000000
  0.000000  0.125000  0.437500     24.000000
 -0.031250  0.156250  0.468750     48.000000
 -0.062500  0.187500  0.500000     48.000000
 -0.093750  0.218750  0.531250     48.000000
 -0.125000  0.250000  0.562500     48.000000
 -0.156250  0.281250  0.593750     48.000000
 -0.187500  0.312500  0.625000     48.000000
 -0.218750  0.343750  0.656250     48.000000
  0.750000 -0.625000 -0.312500     48.000000
  0.718750 -0.593750 -0.281250     48.000000
  0.687500 -0.562500 -0.250000     48.000000
  0.656250 -0.531250 -0.218750     48.000000
  0.625000 -0.500000 -0.187500     48.000000
  0.593750 -0.468750 -0.156250     48.000000
  0.562500 -0.437500 -0.125000     48.000000
  0.531250 -0.406250 -0.093750     48.000000
  0.500000 -0.375000 -0.062500     48.000000
  0.468750 -0.343750 -0.031250     48.000000
  0.437500 -0.312500  0.000000     24.000000
  0.000000  0.125000  0.500000     24.000000
 -0.031250  0.156250  0.531250     48.000000
 -0.062500  0.187500  0.562500     48.000000
 -0.093750  0.218750  0.593750     48.000000
 -0.125000  0.250000  0.625000     48.000000
 -0.156250  0.281250  0.656250     48.000000
 -0.187500  0.312500  0.687500     48.000000
  0.781250 -0.656250 -0.281250     48.000000
  0.750000 -0.625000 -0.250000     48.000000
  0.718750 -0.593750 -0.218750     48.000000
  0.687500 -0.562500 -0.187500     48.000000
  0.656250 -0.531250 -0.156250     48.000000
  0.625000 -0.500000 -0.125000     48.000000
  0.593750 -0.468750 -0.093750     48.000000
  0.562500 -0.437500 -0.062500     48.000000
  0.531250 -0.406250 -0.031250     48.000000
  0.500000 -0.375000  0.000000     24.000000
  0.000000  0.125000  0.562500     24.000000
 -0.031250  0.156250  0.593750     48.000000
 -0.062500  0.187500  0.625000     48.000000
 -0.093750  0.218750  0.656250     48.000000
 -0.125000  0.250000  0.687500     48.000000
 -0.156250  0.281250  0.718750     48.000000
  0.812500 -0.687500 -0.250000     48.000000
  0.781250 -0.656250 -0.218750     48.000000
  0.750000 -0.625000 -0.187500     48.000000
  0.718750 -0.593750 -0.156250     48.000000
  0.687500 -0.562500 -0.125000     48.000000
  0.656250 -0.531250 -0.093750     48.000000
  0.625000 -0.500000 -0.062500     48.000000
  0.593750 -0.468750 -0.031250     48.000000
  0.562500 -0.437500  0.000000     24.000000
  0.000000  0.125000  0.625000     24.000000
 -0.031250  0.156250  0.656250     48.000000
 -0.062500  0.187500  0.687500     48.000000
 -0.093750  0.218750  0.718750     48.000000
 -0.125000  0.250000  0.750000     48.000000
  0.843750 -0.718750 -0.218750     48.000000
  0.812500 -0.687500 -0.187500     48.000000
  0.781250 -0.656250 -0.156250     48.000000
  0.750000 -0.625000 -0.125000     48.000000
  0.718750 -0.593750 -0.093750     48.000000
  0.687500 -0.562500 -0.062500     48.000000
  0.656250 -0.531250 -0.031250     48.000000
  0.625000 -0.500000  0.000000     24.000000
  0.000000  0.125000  0.687500     24.000000
 -0.031250  0.156250  0.718750     48.000000
 -0.062500  0.187500  0.750000     48.000000
 -0.093750  0.218750  0.781250     48.000000
  0.875000 -0.750000 -0.187500     48.000000
  0.843750 -0.718750 -0.156250     48.000000
  0.812500 -0.687500 -0.125000     48.000000
  0.781250 -0.656250 -0.093750     48.000000
  0.750000 -0.625000 -0.062500     48.000000
  0.718750 -0.593750 -0.031250     48.000000
  0.687500 -0.562500  0.000000     24.000000
  0.000000  0.125000  0.750000     24.000000
 -0.031250  0.156250  0.781250     48.000000
 -0.062500  0.187500  0.812500     48.000000
  0.906250 -0.781250 -0.156250     48.000000
  0.875000 -0.750000 -0.125000     48.000000
  0.843750 -0.718750 -0.093750     48.000000
  0.812500 -0.687500 -0.062500     48.000000
  0.781250 -0.656250 -0.031250     48.000000
  0.750000 -0.625000  0.000000     24.000000
  0.000000  0.125000  0.812500     24.000000
 -0.031250  0.156250  0.843750     48.000000
  0.937500 -0.812500 -0.125000     48.000000
  0.906250 -0.781250 -0.093750     48.000000
  0.875000 -0.750000 -0.062500     48.000000
  0.843750 -0.718750 -0.031250     48.000000
  0.812500 -0.687500  0.000000     24.000000
  0.000000  0.125000  0.875000     24.000000
  0.968750 -0.843750 -0.093750     48.000000
  0.937500 -0.812500 -0.062500     48.000000
  0.906250 -0.781250 -0.031250     48.000000
  0.875000 -0.750000  0.000000     24.000000
  1.000000 -0.875000 -0.062500     24.000000
  0.968750 -0.843750 -0.031250     48.000000
  0.937500 -0.812500  0.000000     24.000000
  1.000000 -0.875000  0.000000     12.000000
  0.000000  0.187500  0.375000     24.000000
 -0.031250  0.218750  0.406250     48.000000
 -0.062500  0.250000  0.437500     48.000000
 -0.093750  0.281250  0.468750     48.000000
 -0.125000  0.312500  0.500000     48.000000
 -0.156250  0.343750  0.531250     48.000000
 -0.187500  0.375000  0.562500     48.000000
 -0.218750  0.406250  0.593750     48.000000
  0.750000 -0.562500 -0.375000     48.000000
  0.718750 -0.531250 -0.343750     48.000000
  0.687500 -0.500000 -0.312500     24.000000
  0.000000  0.187500  0.437500     24.000000
 -0.031250  0.218750  0.468750     48.000000
 -0.062500  0.250000  0.500000     48.000000
 -0.093750  0.281250  0.531250     48.000000
 -0.125000  0.312500  0.562500     48.000000
 -0.156250  0.343750  0.593750     48.000000
 -0.187500  0.375000  0.625000     48.000000
[...]
      5       8.4839      0.00000
      6       9.9167      0.00000
      7      11.2192      0.00000
      8      11.7743      0.00000

 k-point   864 :      -0.2812    0.4375    0.1563
  band No.  band energies     occupation 
      1      -2.4599      2.00000
      2      -1.5051      2.00000
      3       1.5227      2.00000
      4       2.4930      2.00000
      5       8.5950      0.00000
      6      10.4187      0.00000
      7      11.1469      0.00000
      8      11.2553      0.00000

 k-point   865 :      -0.3750    0.4688    0.1563
  band No.  band energies     occupation 
      1      -2.4108      2.00000
      2      -1.6068      2.00000
      3       2.0448      2.00000
      4       2.2471      2.00000
      5       8.1493      0.00000
      6       8.3040      0.00000
      7      12.0858      0.00000
      8      13.1871      0.00000

 k-point   866 :      -0.3437    0.4688    0.1563
  band No.  band energies     occupation 
      1      -2.2081      2.00000
      2      -1.7869      2.00000
      3       1.9060      2.00000
      4       2.2133      2.00000
      5       8.2870      0.00000
      6       8.7591      0.00000
      7      11.9580      0.00000
      8      12.5103      0.00000

 k-point   867 :      -0.3125    0.4688    0.1563
  band No.  band energies     occupation 
      1      -2.1816      2.00000
      2      -1.7939      2.00000
      3       1.7351      2.00000
      4       2.2832      2.00000
      5       8.3764      0.00000
      6       9.3269      0.00000
      7      11.7850      0.00000
      8      11.9161      0.00000

 k-point   868 :      -0.3437    0.5000    0.1563
  band No.  band energies     occupation 
      1      -2.0110      2.00000
      2      -2.0110      2.00000
      3       2.1210      2.00000
      4       2.1210      2.00000
      5       8.2073      0.00000
      6       8.2073      0.00000
      7      12.6252      0.00000
      8      12.6252      0.00000

 k-point   869 :      -0.4375    0.3750    0.1875
  band No.  band energies     occupation 
      1      -3.4162      2.00000
      2      -0.5575      2.00000
      3       1.8560      2.00000
      4       2.9609      2.00000
      5       8.8167      0.00000
      6       9.3911      0.00000
      7       9.9470      0.00000
      8      13.5128      0.00000

 k-point   870 :      -0.4062    0.3750    0.1875
  band No.  band energies     occupation 
      1      -3.1857      2.00000
      2      -0.8034      2.00000
      3       1.7368      2.00000
      4       2.8268      2.00000
      5       9.0272      0.00000
      6       9.5521      0.00000
      7       9.9575      0.00000
      8      13.4883      0.00000

 k-point   871 :      -0.3750    0.3750    0.1875
  band No.  band energies     occupation 
      1      -2.9729      2.00000
      2      -1.0318      2.00000
      3       1.6576      2.00000
      4       2.7246      2.00000
      5       9.1220      0.00000
      6       9.5495      0.00000
      7      10.3184      0.00000
      8      12.8057      0.00000

 k-point   872 :      -0.3437    0.3750    0.1875
  band No.  band energies     occupation 
      1      -2.8099      2.00000
      2      -1.2063      2.00000
      3       1.6126      2.00000
      4       2.6605      2.00000
      5       9.1806      0.00000
      6       9.4799      0.00000
      7      10.8432      0.00000
      8      12.1501      0.00000

 k-point   873 :      -0.3125    0.3750    0.1875
  band No.  band energies     occupation 
      1      -2.7457      2.00000
      2      -1.2746      2.00000
      3       1.5983      2.00000
      4       2.6387      2.00000
      5       9.2070      0.00000
      6       9.4446      0.00000
      7      11.2780      0.00000
      8      11.6776      0.00000

 k-point   874 :      -0.4062    0.4063    0.1875
  band No.  band energies     occupation 
      1      -3.0733      2.00000
      2      -0.9022      2.00000
      3       1.8155      2.00000
      4       2.6406      2.00000
      5       8.7709      0.00000
      6       9.2024      0.00000
      7      10.3554      0.00000
      8      13.5684      0.00000

 k-point   875 :      -0.3750    0.4063    0.1875
  band No.  band energies     occupation 
      1      -2.8499      2.00000
      2      -1.1239      2.00000
      3       1.7193      2.00000
      4       2.5186      2.00000
      5       8.9699      0.00000
      6       9.5274      0.00000
      7      10.2580      0.00000
      8      12.8806      0.00000

 k-point   876 :      -0.3437    0.4063    0.1875
  band No.  band energies     occupation 
      1      -2.6620      2.00000
      2      -1.3107      2.00000
      3       1.6461      2.00000
      4       2.4473      2.00000
      5       9.0623      0.00000
      6       9.8525      0.00000
      7      10.3362      0.00000
      8      12.2087      0.00000

 k-point   877 :      -0.3125    0.4063    0.1875
  band No.  band energies     occupation 
      1      -2.5609      2.00000
      2      -1.4104      2.00000
      3       1.5960      2.00000
      4       2.4305      2.00000
      5       9.1475      0.00000
      6       9.8684      0.00000
      7      10.7771      0.00000
      8      11.5898      0.00000

 k-point   878 :      -0.2812    0.4063    0.1875
  band No.  band energies     occupation 
      1      -2.5974      2.00000
      2      -1.3724      2.00000
      3       1.5729      2.00000
      4       2.4661      2.00000
      5       9.2420      0.00000
      6       9.7934      0.00000
      7      10.8629      0.00000
      8      11.5033      0.00000

 k-point   879 :      -0.2500    0.4063    0.1875
  band No.  band energies     occupation 
      1      -2.7496      2.00000
      2      -1.2208      2.00000
      3       1.5838      2.00000
      4       2.5489      2.00000
      5       9.3465      0.00000
      6       9.6823      0.00000
      7      10.3732      0.00000
      8      12.1136      0.00000

 k-point   880 :      -0.2187    0.4063    0.1875
  band No.  band energies     occupation 
      1      -2.9581      2.00000
      2      -1.0178      2.00000
      3       1.6365      2.00000
      4       2.6717      2.00000
      5       9.4397      0.00000
      6       9.4550      0.00000
      7      10.0413      0.00000
      8      12.7909      0.00000

 k-point   881 :      -0.3750    0.4375    0.1875
  band No.  band energies     occupation 
      1      -2.7173      2.00000
      2      -1.2559      2.00000
      3       1.8214      2.00000
      4       2.3677      2.00000
      5       8.7560      0.00000
      6       9.0410      0.00000
      7      10.8136      0.00000
      8      12.9727      0.00000

 k-point   882 :      -0.3437    0.4375    0.1875
  band No.  band energies     occupation 
      1      -2.5087      2.00000
      2      -1.4510      2.00000
      3       1.7454      2.00000
      4       2.2677      2.00000
      5       8.9337      0.00000
      6       9.4481      0.00000
      7      10.7003      0.00000
      8      12.2926      0.00000

 k-point   883 :      -0.3125    0.4375    0.1875
  band No.  band energies     occupation 
      1      -2.3720      2.00000
      2      -1.5778      2.00000
      3       1.6646      2.00000
      4       2.2494      2.00000
      5       9.0250      0.00000
      6       9.9516      0.00000
      7      10.6408      0.00000
      8      11.6426      0.00000

 k-point   884 :      -0.2812    0.4375    0.1875
  band No.  band energies     occupation 
      1      -2.3888      2.00000
      2      -1.5571      2.00000
      3       1.5977      2.00000
      4       2.3007      2.00000
      5       9.1238      0.00000
      6      10.2250      0.00000
      7      10.7898      0.00000
      8      11.1088      0.00000

 k-point   885 :      -0.2500    0.4375    0.1875
  band No.  band energies     occupation 
      1      -2.5417      2.00000
      2      -1.4099      2.00000
      3       1.5662      2.00000
      4       2.4048      2.00000
      5       9.2362      0.00000
      6      10.0938      0.00000
      7      10.5364      0.00000
      8      11.4666      0.00000

 k-point   886 :      -0.3437    0.4688    0.1875
  band No.  band energies     occupation 
      1      -2.3528      2.00000
      2      -1.6174      2.00000
      3       1.8771      2.00000
      4       2.1488      2.00000
      5       8.7738      0.00000
      6       8.9159      0.00000
      7      11.3079      0.00000
      8      12.3927      0.00000

 k-point   887 :      -0.3125    0.4688    0.1875
  band No.  band energies     occupation 
      1      -2.1798      2.00000
      2      -1.7717      2.00000
      3       1.7979      2.00000
      4       2.1003      2.00000
      5       8.9160      0.00000
      6       9.4017      0.00000
      7      11.1936      0.00000
      8      11.7284      0.00000

 k-point   888 :      -0.2812    0.4688    0.1875
  band No.  band energies     occupation 
      1      -2.2088      2.00000
      2      -1.7326      2.00000
      3       1.6805      2.00000
      4       2.1727      2.00000
      5       9.0124      0.00000
      6       9.9584      0.00000
      7      11.0715      0.00000
      8      11.1514      0.00000

 k-point   889 :      -0.3125    0.5000    0.1875
  band No.  band energies     occupation 
      1      -1.9847      2.00000
      2      -1.9847      2.00000
      3       1.9853      2.00000
      4       1.9854      2.00000
      5       8.8266      0.00000
      6       8.8266      0.00000
      7      11.8359      0.00000
      8      11.8360      0.00000

 k-point   890 :      -0.3437    0.4375    0.2188
  band No.  band energies     occupation 
      1      -2.6291      2.00000
      2      -1.3255      2.00000
      3       1.6681      2.00000
      4       2.3609      2.00000
      5       9.4220      0.00000
      6       9.5789      0.00000
      7      10.1956      0.00000
      8      12.1917      0.00000

 k-point   891 :      -0.3125    0.4375    0.2188
  band No.  band energies     occupation 
      1      -2.4441      2.00000
      2      -1.4991      2.00000
      3       1.6453      2.00000
      4       2.2563      2.00000
      5       9.5411      0.00000
      6       9.8069      0.00000
      7      10.3523      0.00000
      8      11.5413      0.00000

 k-point   892 :      -0.2812    0.4375    0.2188
  band No.  band energies     occupation 
      1      -2.3627      2.00000
      2      -1.5770      2.00000
      3       1.6395      2.00000
      4       2.2191      2.00000
      5       9.5558      0.00000
      6       9.8558      0.00000
      7      10.7009      0.00000
      8      11.0787      0.00000

 k-point   893 :      -0.3125    0.4688    0.2188
  band No.  band energies     occupation 
      1      -2.2969      2.00000
      2      -1.6418      2.00000
      3       1.7547      2.00000
      4       2.1016      2.00000
      5       9.4336      0.00000
      6       9.5336      0.00000
      7      10.5979      0.00000
      8      11.6224      0.00000

 k-point   894 :      -0.2812    0.4688    0.2188
  band No.  band energies     occupation 
      1      -2.1638      2.00000
      2      -1.7636      2.00000
      3       1.7425      2.00000
      4       2.0404      2.00000
      5       9.5549      0.00000
      6       9.9672      0.00000
      7      10.5710      0.00000
      8      11.0136      0.00000

 k-point   895 :      -0.2500    0.4688    0.2188
  band No.  band energies     occupation 
      1      -2.2477      2.00000
      2      -1.6807      2.00000
      3       1.6873      2.00000
      4       2.1101      2.00000
      5       9.6276      0.00000
      6      10.0553      0.00000
      7      10.4841      0.00000
      8      10.9562      0.00000

 k-point   896 :      -0.2812    0.5000    0.2188
  band No.  band energies     occupation 
      1      -1.9663      2.00000
      2      -1.9663      2.00000
      3       1.8989      2.00000
      4       1.8989      2.00000
      5       9.4732      0.00000
      6       9.4733      0.00000
      7      11.0873      0.00000
      8      11.0873      0.00000

 k-point   897 :      -0.2500    0.5000    0.2500
  band No.  band energies     occupation 
      1      -1.9598      2.00000
      2      -1.9598      2.00000
      3       1.8693      2.00000
      4       1.8693      2.00000
      5       9.9358      0.00000
      6       9.9359      0.00000
      7      10.5922      0.00000
      8      10.5922      0.00000


--------------------------------------------------------------------------------------------------------


 soft charge-density along one line, spin component           1
         0         1         2         3         4         5         6         7         8         9
 total charge-density along one line

 pseudopotential strength for first ion, spin component:           1
 18.437  25.723  -0.000  -0.000  -0.000  -0.000  -0.000  -0.000
 25.723  35.893  -0.000  -0.000  -0.000  -0.000  -0.000  -0.000
 -0.000  -0.000   4.181  -0.000  -0.000   7.791  -0.000  -0.000
 -0.000  -0.000  -0.000   4.181  -0.000  -0.000   7.791  -0.000
 -0.000  -0.000  -0.000  -0.000   4.181  -0.000  -0.000   7.791
 -0.000  -0.000   7.791  -0.000  -0.000  14.530  -0.000  -0.000
 -0.000  -0.000  -0.000   7.791  -0.000  -0.000  14.530  -0.000
 -0.000  -0.000  -0.000  -0.000   7.791  -0.000  -0.000  14.530
 total augmentation occupancy for first ion, spin component:           1
  5.944  -2.283  -0.000  -0.000  -0.000  -0.000  -0.000   0.000
 -2.283   0.987  -0.000   0.000   0.000   0.000   0.000   0.000
 -0.000  -0.000   3.313  -0.000   0.000  -0.806   0.000  -0.000
 -0.000   0.000  -0.000   3.313   0.000   0.000  -0.806  -0.000
 -0.000   0.000   0.000   0.000   3.313  -0.000  -0.000  -0.806
 -0.000   0.000  -0.806   0.000  -0.000   0.204  -0.000   0.000
 -0.000   0.000   0.000  -0.806   0.000  -0.000   0.204   0.000
  0.000   0.000  -0.000   0.000  -0.806   0.000  -0.000   0.204


------------------------ aborting loop because EDIFF is reached ----------------------------------------





 total charge

# of ion       s       p       d       tot
------------------------------------------
    1        0.755   0.942   0.000   1.697
    2        0.755   0.942   0.000   1.697
--------------------------------------------------
tot          1.509   1.884   0.000   3.393

    CHARGE:  cpu time      0.1276: real time      0.1276
    FORLOC:  cpu time      0.0003: real time      0.0003
    FORNL :  cpu time      0.1540: real time      0.1540
    STRESS:  cpu time      1.0820: real time      1.0821
    FORCOR:  cpu time      0.0142: real time      0.0142
    FORHAR:  cpu time      0.0047: real time      0.0047
    MIXING:  cpu time      0.0014: real time      0.0014
    OFIELD:  cpu time      0.0001: real time      0.0001

  FORCE on cell =-STRESS in cart. coord.  units (eV):
  Direction    XX          YY          ZZ          XY          YZ          ZX
  --------------------------------------------------------------------------------------
  Alpha Z     3.30011     3.30011     3.30011
  Ewald     -75.70138   -75.70138   -75.70138     0.00000    -0.00000    -0.00000
  Hartree     5.04538     5.04538     5.04538    -0.00000    -0.00000    -0.00000
  E(xc)     -25.27763   -25.27763   -25.27763     0.00000     0.00000     0.00000
  Local     -29.60791   -29.60791   -29.60791     0.00005     0.00005     0.00005
  n-local    78.48917    80.13247    74.30636     2.29167    -1.30161     0.48336
  augment   -11.61418   -11.61418   -11.61418    -0.00005    -0.00005    -0.00005
  Kinetic    58.50415    55.67037    54.46906     3.53373    -0.73922     1.06264
  Fock        0.00000     0.00000     0.00000     0.00000     0.00000     0.00000
  -------------------------------------------------------------------------------------
  Total       0.00158     0.00158     0.00158     0.00000    -0.00000     0.00000
  in kB       0.06207     0.06207     0.06207     0.00000    -0.00000     0.00000
  external pressure =        0.06 kB  Pullay stress =        0.00 kB


 VOLUME and BASIS-vectors are now :
 -----------------------------------------------------------------------------
  energy-cutoff  :      245.34
  volume of cell :       40.80
      direct lattice vectors                 reciprocal lattice vectors
     0.000000000  2.732447850  2.732447850    -0.182986109  0.182986109  0.182986109
     2.732447850  0.000000000  2.732447850     0.182986109 -0.182986109  0.182986109
     2.732447850  2.732447850  0.000000000     0.182986109  0.182986109 -0.182986109

  length of vectors
     3.864264808  3.864264808  3.864264808     0.316941238  0.316941238  0.316941238


 FORCES acting on ions
    electron-ion (+dipol)            ewald-force                    non-local-force                 convergence-correction
 -----------------------------------------------------------------------------------------------
   0.581E-05 0.581E-05 0.586E-05   0.191E-14 -.858E-15 -.165E-14   0.117E-15 0.558E-17 0.118E-15   -.593E-08 -.593E-08 -.593E-08
   -.581E-05 -.581E-05 -.586E-05   -.172E-14 0.634E-15 0.130E-14   -.431E-16 -.397E-16 -.708E-16   0.593E-08 0.593E-08 0.593E-08
 -----------------------------------------------------------------------------------------------
   -.131E-12 -.339E-13 0.170E-13   0.189E-15 -.224E-15 -.352E-15   0.735E-16 -.341E-16 0.474E-16   -.512E-15 0.633E-15 0.707E-15


 POSITION                                       TOTAL-FORCE (eV/Angst)
 -----------------------------------------------------------------------------------
      4.78178      4.78178      4.78178         0.000000      0.000000      0.000000
      0.68311      0.68311      0.68311        -0.000000     -0.000000     -0.000000
 -----------------------------------------------------------------------------------
    total drift:                               -0.000000     -0.000000      0.000000


--------------------------------------------------------------------------------------------------------



  FREE ENERGIE OF THE ION-ELECTRON SYSTEM (eV)
  ---------------------------------------------------
  free  energy   TOTEN  =       -10.82810701 eV

  energy  without entropy=      -10.82810701  energy(sigma->0) =      -10.82810701



--------------------------------------------------------------------------------------------------------


    POTLOK:  cpu time      0.0344: real time      0.0344


--------------------------------------------------------------------------------------------------------


 writing wavefunctions
     LOOP+:  cpu time     45.8542: real time     45.8629
    4ORBIT:  cpu time      0.0000: real time      0.0000



 total charge

# of ion       s       p       d       tot
------------------------------------------
    1        0.755   0.942   0.000   1.697
    2        0.755   0.942   0.000   1.697
--------------------------------------------------
tot          1.509   1.884   0.000   3.393


 total amount of memory used by VASP MPI-rank0    76655. kBytes
=======================================================================

   base      :      30000. kBytes
   nonl-proj :      21137. kBytes
   fftplans  :       2481. kBytes
   grid      :        987. kBytes
   one-center:          6. kBytes
   wavefun   :      22044. kBytes

  
  
 General timing and accounting informations for this job:
 ========================================================
  
                  Total CPU time used (sec):       47.450
                            User time (sec):       46.025
                          System time (sec):        1.424
                         Elapsed time (sec):       47.769
  
                   Maximum memory used (kb):      106472.
                   Average memory used (kb):          N/A
  
                          Minor page faults:        38921
                          Major page faults:          283
                 Voluntary context switches:         1317
