PROCAR lm decomposed
# of k-points:  897         # of bands:    8         # of ions:    2

 k-point     1 :    0.00000000 0.00000000 0.00000000     weight = 0.00003052

band     1 # energy   -6.19226718 # occ.  2.00000000

ion      s     py     pz     px    dxy    dyz    dz2    dxz  x2-y2    tot
    1  0.213  0.000  0.000  0.000  0.000  0.000  0.000  0.000  0.000  0.213
    2  0.213  0.000  0.000  0.000  0.000  0.000  0.000  0.000  0.000  0.213
tot    0.427  0.000  0.000  0.000  0.000  0.000  0.000  0.000  0.000  0.427

band     2 # energy    5.64850297 # occ.  1.99999987

ion      s     py     pz     px    dxy    dyz    dz2    dxz  x2-y2    tot
    1  0.000  0.072  0.073  0.072  0.000  0.000  0.000  0.000  0.000  0.217
    2  0.000  0.072  0.073  0.072  0.000  0.000  0.000  0.000  0.000  0.217
tot    0.000  0.145  0.145  0.145  0.000  0.000  0.000  0.000  0.000  0.435

band     3 # energy    5.64851847 # occ.  1.99999987

ion      s     py     pz     px    dxy    dyz    dz2    dxz  x2-y2    tot
    1  0.000  0.109  0.000  0.109  0.000  0.000  0.000  0.000  0.000  0.217
    2  0.000  0.109  0.000  0.109  0.000  0.000  0.000  0.000  0.000  0.217
tot    0.000  0.217  0.000  0.217  0.000  0.000  0.000  0.000  0.000  0.435

band     4 # energy    5.64851849 # occ.  1.99999987

ion      s     py     pz     px    dxy    dyz    dz2    dxz  x2-y2    tot
    1  0.000  0.036  0.145  0.036  0.000  0.000  0.000  0.000  0.000  0.217
    2  0.000  0.036  0.145  0.036  0.000  0.000  0.000  0.000  0.000  0.217
tot    0.000  0.073  0.289  0.073  0.000  0.000  0.000  0.000  0.000  0.435

band     5 # energy    8.20866281 # occ.  0.00000000

ion      s     py     pz     px    dxy    dyz    dz2    dxz  x2-y2    tot
    1  0.000  0.051  0.051  0.051  0.000  0.000  0.000  0.000  0.000  0.153
    2  0.000  0.051  0.051  0.051  0.000  0.000  0.000  0.000  0.000  0.153
tot    0.000  0.102  0.102  0.102  0.000  0.000  0.000  0.000  0.000  0.306

band     6 # energy    8.20867910 # occ.  0.00000000

ion      s     py     pz     px    dxy    dyz    dz2    dxz  x2-y2    tot
    1  0.000  0.077  0.000  0.077  0.000  0.000  0.000  0.000  0.000  0.153
    2  0.000  0.077  0.000  0.077  0.000  0.000  0.000  0.000  0.000  0.153
tot    0.000  0.153  0.000  0.153  0.000  0.000  0.000  0.000  0.000  0.306

band     7 # energy    8.20867910 # occ.  0.00000000

ion      s     py     pz     px    dxy    dyz    dz2    dxz  x2-y2    tot
    1  0.000  0.026  0.102  0.026  0.000  0.000  0.000  0.000  0.000  0.153
    2  0.000  0.026  0.102  0.026  0.000  0.000  0.000  0.000  0.000  0.153
tot    0.000  0.051  0.204  0.051  0.000  0.000  0.000  0.000  0.000  0.306

band     8 # energy    8.79461394 # occ.  0.00000000

ion      s     py     pz     px    dxy    dyz    dz2    dxz  x2-y2    tot
    1  0.361  0.000  0.000  0.000  0.000  0.000  0.000  0.000  0.000  0.361
    2  0.361  0.000  0.000  0.000  0.000  0.000  0.000  0.000  0.000  0.361
tot    0.722  0.000  0.000  0.000  0.000  0.000  0.000  0.000  0.000  0.722


 k-point     2 :    0.03125000 0.00000000 0.00000000     weight = 0.00024414

band     1 # energy   -6.17963976 # occ.  2.00000000

ion      s     py     pz     px    dxy    dyz    dz2    dxz  x2-y2    tot
    1  0.213  0.000  0.000  0.000  0.000  0.000  0.000  0.000  0.000  0.214
    2  0.213  0.000  0.000  0.000  0.000  0.000  0.000  0.000  0.000  0.214
tot    0.427  0.000  0.000  0.000  0.000  0.000  0.000  0.000  0.000  0.427

band     2 # energy    5.49862785 # occ.  2.00000000

ion      s     py     pz     px    dxy    dyz    dz2    dxz  x2-y2    tot
    1  0.011  0.069  0.069  0.069  0.000  0.000  0.000  0.000  0.000  0.219
    2  0.011  0.069  0.069  0.069  0.000  0.000  0.000  0.000  0.000  0.219
tot    0.021  0.139  0.139  0.139  0.000  0.000  0.000  0.000  0.000  0.437

band     3 # energy    5.62677576 # occ.  2.00000000

ion      s     py     pz     px    dxy    dyz    dz2    dxz  x2-y2    tot
    1  0.000  0.036  0.036  0.145  0.000  0.000  0.000  0.000  0.000  0.217
    2  0.000  0.036  0.036  0.145  0.000  0.000  0.000  0.000  0.000  0.217
tot    0.000  0.072  0.073  0.289  0.000  0.000  0.000  0.000  0.000  0.434

band     4 # energy    5.62678956 # occ.  2.00000000

ion      s     py     pz     px    dxy    dyz    dz2    dxz  x2-y2    tot
    1  0.000  0.109  0.108  0.000  0.000  0.000  0.000  0.000  0.000  0.217
    2  0.000  0.109  0.108  0.000  0.000  0.000  0.000  0.000  0.000  0.217
tot    0.000  0.217  0.217  0.000  0.000  0.000  0.000  0.000  0.000  0.434

band     5 # energy    8.24043050 # occ.  0.00000000

ion      s     py     pz     px    dxy    dyz    dz2    dxz  x2-y2    tot
    1  0.005  0.074  0.074  0.004  0.000  0.000  0.000  0.000  0.000  0.156
    2  0.005  0.074  0.074  0.004  0.000  0.000  0.000  0.000  0.000  0.156
tot    0.010  0.147  0.147  0.007  0.000  0.000  0.000  0.000  0.000  0.312

band     6 # energy    8.24043965 # occ.  0.00000000

ion      s     py     pz     px    dxy    dyz    dz2    dxz  x2-y2    tot
    1  0.003  0.002  0.002  0.148  0.000  0.000  0.000  0.000  0.000  0.155
    2  0.003  0.002  0.002  0.148  0.000  0.000  0.000  0.000  0.000  0.155
tot    0.006  0.003  0.003  0.297  0.000  0.000  0.000  0.000  0.000  0.310

band     7 # energy    8.24045077 # occ.  0.00000000

ion      s     py     pz     px    dxy    dyz    dz2    dxz  x2-y2    tot
    1  0.000  0.077  0.077  0.000  0.000  0.000  0.000  0.000  0.000  0.154
    2  0.000  0.077  0.077  0.000  0.000  0.000  0.000  0.000  0.000  0.154
tot    0.000  0.154  0.153  0.000  0.000  0.000  0.000  0.000  0.000  0.307

band     8 # energy    8.89159123 # occ.  0.00000000

ion      s     py     pz     px    dxy    dyz    dz2    dxz  x2-y2    tot
    1  0.343  0.004  0.004  0.004  0.000  0.000  0.000  0.000  0.000  0.355
    2  0.343  0.004  0.004  0.004  0.000  0.000  0.000  0.000  0.000  0.355
tot    0.686  0.008  0.008  0.008  0.000  0.000  0.000  0.000  0.000  0.709


 k-point     3 :    0.06250000 0.00000000 0.00000000     weight = 0.00024414

band     1 # energy   -6.14183344 # occ.  2.00000000

ion      s     py     pz     px    dxy    dyz    dz2    dxz  x2-y2    tot
    1  0.213  0.000  0.000  0.000  0.000  0.000  0.000  0.000  0.000  0.214
    2  0.213  0.000  0.000  0.000  0.000  0.000  0.000  0.000  0.000  0.214
tot    0.426  0.000  0.000  0.000  0.000  0.000  0.000  0.000  0.000  0.428

band     2 # energy    5.11641493 # occ.  2.00000000

ion      s     py     pz     px    dxy    dyz    dz2    dxz  x2-y2    tot
    1  0.031  0.063  0.063  0.063  0.000  0.000  0.000  0.000  0.000  0.221
    2  0.031  0.063  0.063  0.063  0.000  0.000  0.000  0.000  0.000  0.221
tot    0.063  0.126  0.126  0.126  0.000  0.000  0.000  0.000  0.000  0.442

band     3 # energy    5.56549494 # occ.  2.00000000

ion      s     py     pz     px    dxy    dyz    dz2    dxz  x2-y2    tot
    1  0.000  0.036  0.036  0.144  0.000  0.000  0.000  0.000  0.000  0.216
    2  0.000  0.036  0.036  0.144  0.000  0.000  0.000  0.000  0.000  0.216
tot    0.000  0.072  0.072  0.288  0.000  0.000  0.000  0.000  0.000  0.433

band     4 # energy    5.56550878 # occ.  2.00000000

ion      s     py     pz     px    dxy    dyz    dz2    dxz  x2-y2    tot
    1  0.000  0.108  0.108  0.000  0.000  0.000  0.000  0.000  0.000  0.216
    2  0.000  0.108  0.108  0.000  0.000  0.000  0.000  0.000  0.000  0.216
tot    0.000  0.217  0.216  0.000  0.000  0.000  0.000  0.000  0.000  0.433

band     5 # energy    8.25017656 # occ.  0.00000000

ion      s     py     pz     px    dxy    dyz    dz2    dxz  x2-y2    tot
    1  0.049  0.043  0.043  0.043  0.000  0.000  0.000  0.000  0.000  0.177
    2  0.049  0.043  0.043  0.043  0.000  0.000  0.000  0.000  0.000  0.177
tot    0.098  0.085  0.085  0.085  0.000  0.000  0.000  0.000  0.000  0.354

band     6 # energy    8.33054739 # occ.  0.00000000

ion      s     py     pz     px    dxy    dyz    dz2    dxz  x2-y2    tot
    1  0.000  0.026  0.026  0.103  0.000  0.000  0.000  0.000  0.000  0.155
    2  0.000  0.026  0.026  0.103  0.000  0.000  0.000  0.000  0.000  0.155
tot    0.000  0.051  0.052  0.206  0.000  0.000  0.000  0.000  0.000  0.309

band     7 # energy    8.33056265 # occ.  0.00000000

ion      s     py     pz     px    dxy    dyz    dz2    dxz  x2-y2    tot
    1  0.000  0.077  0.077  0.000  0.000  0.000  0.000  0.000  0.000  0.155
    2  0.000  0.077  0.077  0.000  0.000  0.000  0.000  0.000  0.000  0.155
tot    0.000  0.155  0.155  0.000  0.000  0.000  0.000  0.000  0.000  0.309

band     8 # energy    9.20030145 # occ.  0.00000000

ion      s     py     pz     px    dxy    dyz    dz2    dxz  x2-y2    tot
    1  0.285  0.015  0.015  0.015  0.000  0.000  0.000  0.000  0.000  0.331
    2  0.285  0.015  0.015  0.015  0.000  0.000  0.000  0.000  0.000  0.331
tot    0.569  0.031  0.031  0.031  0.000  0.000  0.000  0.000  0.000  0.662


 k-point     4 :    0.09375000 0.00000000 0.00000000     weight = 0.00024414

band     1 # energy   -6.07891959 # occ.  2.00000000

ion      s     py     pz     px    dxy    dyz    dz2    dxz  x2-y2    tot
    1  0.213  0.000  0.000  0.000  0.000  0.000  0.000  0.000  0.000  0.214
    2  0.213  0.000  0.000  0.000  0.000  0.000  0.000  0.000  0.000  0.214
tot    0.426  0.001  0.001  0.001  0.000  0.000  0.000  0.000  0.000  0.428

band     2 # energy    4.61260601 # occ.  2.00000000

ion      s     py     pz     px    dxy    dyz    dz2    dxz  x2-y2    tot
    1  0.050  0.057  0.057  0.057  0.000  0.000  0.000  0.000  0.000  0.222
    2  0.050  0.057  0.057  0.057  0.000  0.000  0.000  0.000  0.000  0.222
tot    0.100  0.115  0.115  0.115  0.000  0.000  0.000  0.000  0.000  0.445

band     3 # energy    5.47506155 # occ.  2.00000000

ion      s     py     pz     px    dxy    dyz    dz2    dxz  x2-y2    tot
    1  0.000  0.036  0.036  0.144  0.000  0.000  0.000  0.000  0.000  0.215
    2  0.000  0.036  0.036  0.144  0.000  0.000  0.000  0.000  0.000  0.215
tot    0.000  0.072  0.072  0.287  0.000  0.000  0.000  0.000  0.000  0.431

band     4 # energy    5.47507521 # occ.  2.00000000

ion      s     py     pz     px    dxy    dyz    dz2    dxz  x2-y2    tot
    1  0.000  0.108  0.108  0.000  0.000  0.000  0.000  0.000  0.000  0.215
    2  0.000  0.108  0.108  0.000  0.000  0.000  0.000  0.000  0.000  0.215
tot    0.000  0.216  0.215  0.000  0.000  0.000  0.000  0.000  0.000  0.431

band     5 # energy    8.19426820 # occ.  0.00000000

ion      s     py     pz     px    dxy    dyz    dz2    dxz  x2-y2    tot
    1  0.087  0.035  0.035  0.035  0.000  0.000  0.000  0.000  0.000  0.193
    2  0.087  0.035  0.035  0.035  0.000  0.000  0.000  0.000  0.000  0.193
tot    0.173  0.071  0.071  0.071  0.000  0.000  0.000  0.000  0.000  0.385

band     6 # energy    8.46581611 # occ.  0.00000000

ion      s     py     pz     px    dxy    dyz    dz2    dxz  x2-y2    tot
    1  0.000  0.026  0.026  0.104  0.000  0.000  0.000  0.000  0.000  0.156
    2  0.000  0.026  0.026  0.104  0.000  0.000  0.000  0.000  0.000  0.156
tot    0.000  0.052  0.052  0.208  0.000  0.000  0.000  0.000  0.000  0.312

band     7 # energy    8.46583188 # occ.  0.00000000

ion      s     py     pz     px    dxy    dyz    dz2    dxz  x2-y2    tot
    1  0.000  0.078  0.078  0.000  0.000  0.000  0.000  0.000  0.000  0.156
    2  0.000  0.078  0.078  0.000  0.000  0.000  0.000  0.000  0.000  0.156
tot    0.000  0.156  0.156  0.000  0.000  0.000  0.000  0.000  0.000  0.312

band     8 # energy    9.66228695 # occ.  0.00000000

ion      s     py     pz     px    dxy    dyz    dz2    dxz  x2-y2    tot
    1  0.232  0.026  0.026  0.026  0.000  0.000  0.000  0.000  0.000  0.310
    2  0.232  0.026  0.026  0.026  0.000  0.000  0.000  0.000  0.000  0.310
tot    0.464  0.052  0.052  0.052  0.000  0.000  0.000  0.000  0.000  0.620


 k-point     5 :    0.12500000 0.00000000 0.00000000     weight = 0.00024414

band     1 # energy   -5.99139150 # occ.  2.00000000

ion      s     py     pz     px    dxy    dyz    dz2    dxz  x2-y2    tot
    1  0.213  0.001  0.001  0.001  0.000  0.000  0.000  0.000  0.000  0.215
    2  0.213  0.001  0.001  0.001  0.000  0.000  0.000  0.000  0.000  0.215
tot    0.425  0.001  0.001  0.001  0.000  0.000  0.000  0.000  0.000  0.429

band     2 # energy    4.05247013 # occ.  2.00000000

ion      s     py     pz     px    dxy    dyz    dz2    dxz  x2-y2    tot
    1  0.064  0.053  0.053  0.053  0.000  0.000  0.000  0.000  0.000  0.222
    2  0.064  0.053  0.053  0.053  0.000  0.000  0.000  0.000  0.000  0.222
tot    0.129  0.105  0.105  0.105  0.000  0.000  0.000  0.000  0.000  0.444

band     3 # energy    5.36486599 # occ.  2.00000000

ion      s     py     pz     px    dxy    dyz    dz2    dxz  x2-y2    tot
    1  0.000  0.036  0.036  0.143  0.000  0.000  0.000  0.000  0.000  0.215
    2  0.000  0.036  0.036  0.143  0.000  0.000  0.000  0.000  0.000  0.215
tot    0.000  0.071  0.072  0.286  0.000  0.000  0.000  0.000  0.000  0.429

band     4 # energy    5.36487936 # occ.  2.00000000

ion      s     py     pz     px    dxy    dyz    dz2    dxz  x2-y2    tot
    1  0.000  0.107  0.107  0.000  0.000  0.000  0.000  0.000  0.000  0.215
    2  0.000  0.107  0.107  0.000  0.000  0.000  0.000  0.000  0.000  0.215
tot    0.000  0.215  0.214  0.000  0.000  0.000  0.000  0.000  0.000  0.429

band     5 # energy    8.09772032 # occ.  0.00000000

ion      s     py     pz     px    dxy    dyz    dz2    dxz  x2-y2    tot
    1  0.111  0.030  0.030  0.030  0.000  0.000  0.000  0.000  0.000  0.200
    2  0.111  0.030  0.030  0.030  0.000  0.000  0.000  0.000  0.000  0.200
tot    0.221  0.060  0.060  0.060  0.000  0.000  0.000  0.000  0.000  0.400

band     6 # energy    8.62693334 # occ.  0.00000000

ion      s     py     pz     px    dxy    dyz    dz2    dxz  x2-y2    tot
    1  0.000  0.026  0.026  0.105  0.000  0.000  0.000  0.000  0.000  0.157
    2  0.000  0.026  0.026  0.105  0.000  0.000  0.000  0.000  0.000  0.157
tot    0.000  0.052  0.052  0.209  0.000  0.000  0.000  0.000  0.000  0.314

band     7 # energy    8.62694898 # occ.  0.00000000

ion      s     py     pz     px    dxy    dyz    dz2    dxz  x2-y2    tot
    1  0.000  0.078  0.078  0.000  0.000  0.000  0.000  0.000  0.000  0.157
    2  0.000  0.078  0.078  0.000  0.000  0.000  0.000  0.000  0.000  0.157
tot    0.000  0.157  0.157  0.000  0.000  0.000  0.000  0.000  0.000  0.314

band     8 # energy   10.19411233 # occ.  0.00000000

ion      s     py     pz     px    dxy    dyz    dz2    dxz  x2-y2    tot
    1  0.197  0.033  0.033  0.033  0.000  0.000  0.000  0.000  0.000  0.297
    2  0.197  0.033  0.033  0.033  0.000  0.000  0.000  0.000  0.000  0.297
tot    0.395  0.067  0.067  0.067  0.000  0.000  0.000  0.000  0.000  0.595


 k-point     6 :    0.15625000 0.00000000 0.00000000     weight = 0.00024414

band     1 # energy   -5.87954519 # occ.  2.00000000

ion      s     py     pz     px    dxy    dyz    dz2    dxz  x2-y2    tot
    1  0.212  0.001  0.001  0.001  0.000  0.000  0.000  0.000  0.000  0.215
    2  0.212  0.001  0.001  0.001  0.000  0.000  0.000  0.000  0.000  0.215
tot    0.424  0.002  0.002  0.002  0.000  0.000  0.000  0.000  0.000  0.431

band     2 # energy    3.47266410 # occ.  2.00000000

ion      s     py     pz     px    dxy    dyz    dz2    dxz  x2-y2    tot
    1  0.076  0.049  0.049  0.049  0.000  0.000  0.000  0.000  0.000  0.221
    2  0.076  0.049  0.049  0.049  0.000  0.000  0.000  0.000  0.000  0.221
tot    0.151  0.097  0.097  0.097  0.000  0.000  0.000  0.000  0.000  0.443

band     3 # energy    5.24482405 # occ.  2.00000000

ion      s     py     pz     px    dxy    dyz    dz2    dxz  x2-y2    tot
    1  0.000  0.036  0.036  0.143  0.000  0.000  0.000  0.000  0.000  0.214
    2  0.000  0.036  0.036  0.143  0.000  0.000  0.000  0.000  0.000  0.214
tot    0.000  0.071  0.072  0.285  0.000  0.000  0.000  0.000  0.000  0.428

band     4 # energy    5.24483708 # occ.  2.00000000

ion      s     py     pz     px    dxy    dyz    dz2    dxz  x2-y2    tot
    1  0.000  0.107  0.107  0.000  0.000  0.000  0.000  0.000  0.000  0.214
    2  0.000  0.107  0.107  0.000  0.000  0.000  0.000  0.000  0.000  0.214
tot    0.000  0.214  0.214  0.000  0.000  0.000  0.000  0.000  0.000  0.428

band     5 # energy    7.98169042 # occ.  0.00000000

ion      s     py     pz     px    dxy    dyz    dz2    dxz  x2-y2    tot
    1  0.127  0.026  0.026  0.026  0.000  0.000  0.000  0.000  0.000  0.204
    2  0.127  0.026  0.026  0.026  0.000  0.000  0.000  0.000  0.000  0.204
tot    0.254  0.051  0.051  0.051  0.000  0.000  0.000  0.000  0.000  0.408

band     6 # energy    8.79421660 # occ.  0.00000000

ion      s     py     pz     px    dxy    dyz    dz2    dxz  x2-y2    tot
    1  0.000  0.026  0.026  0.104  0.000  0.000  0.000  0.000  0.000  0.156
    2  0.000  0.026  0.026  0.104  0.000  0.000  0.000  0.000  0.000  0.156
tot    0.000  0.052  0.052  0.208  0.000  0.000  0.000  0.000  0.000  0.313

band     7 # energy    8.79423436 # occ.  0.00000000

ion      s     py     pz     px    dxy    dyz    dz2    dxz  x2-y2    tot
    1  0.000  0.078  0.078  0.000  0.000  0.000  0.000  0.000  0.000  0.156
    2  0.000  0.078  0.078  0.000  0.000  0.000  0.000  0.000  0.000  0.156
tot    0.000  0.156  0.156  0.000  0.000  0.000  0.000  0.000  0.000  0.313

band     8 # energy   10.75223541 # occ.  0.00000000

ion      s     py     pz     px    dxy    dyz    dz2    dxz  x2-y2    tot
    1  0.173  0.039  0.039  0.039  0.000  0.000  0.000  0.000  0.000  0.289
    2  0.173  0.039  0.039  0.039  0.000  0.000  0.000  0.000  0.000  0.289
tot    0.345  0.077  0.077  0.077  0.000  0.000  0.000  0.000  0.000  0.578


 k-point     7 :    0.18750000 0.00000000 0.00000000     weight = 0.00024414

band     1 # energy   -5.74401184 # occ.  2.00000000

ion      s     py     pz     px    dxy    dyz    dz2    dxz  x2-y2    tot
    1  0.211  0.002  0.002  0.002  0.000  0.000  0.000  0.000  0.000  0.216
    2  0.211  0.002  0.002  0.002  0.000  0.000  0.000  0.000  0.000  0.216
tot    0.423  0.003  0.003  0.003  0.000  0.000  0.000  0.000  0.000  0.432

band     2 # energy    2.88878778 # occ.  2.00000000

ion      s     py     pz     px    dxy    dyz    dz2    dxz  x2-y2    tot
    1  0.084  0.045  0.045  0.045  0.000  0.000  0.000  0.000  0.000  0.220
    2  0.084  0.045  0.045  0.045  0.000  0.000  0.000  0.000  0.000  0.220
tot    0.169  0.090  0.090  0.090  0.000  0.000  0.000  0.000  0.000  0.439

band     3 # energy    5.12368892 # occ.  2.00000000

ion      s     py     pz     px    dxy    dyz    dz2    dxz  x2-y2    tot
    1  0.000  0.035  0.036  0.142  0.000  0.000  0.000  0.000  0.000  0.214
    2  0.000  0.035  0.036  0.142  0.000  0.000  0.000  0.000  0.000  0.214
tot    0.000  0.071  0.071  0.285  0.000  0.000  0.000  0.000  0.000  0.427

band     4 # energy    5.12370291 # occ.  2.00000000

ion      s     py     pz     px    dxy    dyz    dz2    dxz  x2-y2    tot
    1  0.000  0.107  0.107  0.000  0.000  0.000  0.000  0.000  0.000  0.214
    2  0.000  0.107  0.107  0.000  0.000  0.000  0.000  0.000  0.000  0.214
tot    0.000  0.214  0.213  0.000  0.000  0.000  0.000  0.000  0.000  0.427

band     5 # energy    7.85730166 # occ.  0.00000000

ion      s     py     pz     px    dxy    dyz    dz2    dxz  x2-y2    tot
    1  0.140  0.022  0.022  0.022  0.000  0.000  0.000  0.000  0.000  0.206
    2  0.140  0.022  0.022  0.022  0.000  0.000  0.000  0.000  0.000  0.206
tot    0.279  0.044  0.044  0.044  0.000  0.000  0.000  0.000  0.000  0.411

band     6 # energy    8.94697576 # occ.  0.00000000

ion      s     py     pz     px    dxy    dyz    dz2    dxz  x2-y2    tot
    1  0.000  0.026  0.026  0.102  0.000  0.000  0.000  0.000  0.000  0.154
    2  0.000  0.026  0.026  0.102  0.000  0.000  0.000  0.000  0.000  0.154
tot    0.000  0.051  0.051  0.205  0.000  0.000  0.000  0.000  0.000  0.307

band     7 # energy    8.94699437 # occ.  0.00000000

ion      s     py     pz     px    dxy    dyz    dz2    dxz  x2-y2    tot
    1  0.000  0.077  0.077  0.000  0.000  0.000  0.000  0.000  0.000  0.154
    2  0.000  0.077  0.077  0.000  0.000  0.000  0.000  0.000  0.000  0.154
tot    0.000  0.154  0.154  0.000  0.000  0.000  0.000  0.000  0.000  0.307

band     8 # energy   11.31584488 # occ.  0.00000000

ion      s     py     pz     px    dxy    dyz    dz2    dxz  x2-y2    tot
    1  0.152  0.043  0.043  0.043  0.000  0.000  0.000  0.000  0.000  0.282
    2  0.152  0.043  0.043  0.043  0.000  0.000  0.000  0.000  0.000  0.282
tot    0.304  0.086  0.086  0.086  0.000  0.000  0.000  0.000  0.000  0.563


 k-point     8 :    0.21875000 0.00000000 0.00000000     weight = 0.00024414

band     1 # energy   -5.58570489 # occ.  2.00000000

ion      s     py     pz     px    dxy    dyz    dz2    dxz  x2-y2    tot
    1  0.211  0.002  0.002  0.002  0.000  0.000  0.000  0.000  0.000  0.217
    2  0.211  0.002  0.002  0.002  0.000  0.000  0.000  0.000  0.000  0.217
tot    0.422  0.004  0.004  0.004  0.000  0.000  0.000  0.000  0.000  0.434

band     2 # energy    2.31257188 # occ.  2.00000000

ion      s     py     pz     px    dxy    dyz    dz2    dxz  x2-y2    tot
    1  0.092  0.042  0.042  0.042  0.000  0.000  0.000  0.000  0.000  0.218
    2  0.092  0.042  0.042  0.042  0.000  0.000  0.000  0.000  0.000  0.218
tot    0.183  0.084  0.084  0.084  0.000  0.000  0.000  0.000  0.000  0.436

band     3 # energy    5.00698001 # occ.  2.00000000

ion      s     py     pz     px    dxy    dyz    dz2    dxz  x2-y2    tot
    1  0.000  0.036  0.036  0.143  0.000  0.000  0.000  0.000  0.000  0.214
    2  0.000  0.036  0.036  0.143  0.000  0.000  0.000  0.000  0.000  0.214
tot    0.000  0.071  0.072  0.285  0.000  0.000  0.000  0.000  0.000  0.428

band     4 # energy    5.00699426 # occ.  2.00000000

ion      s     py     pz     px    dxy    dyz    dz2    dxz  x2-y2    tot
    1  0.000  0.107  0.107  0.000  0.000  0.000  0.000  0.000  0.000  0.214
    2  0.000  0.107  0.107  0.000  0.000  0.000  0.000  0.000  0.000  0.214
tot    0.000  0.214  0.214  0.000  0.000  0.000  0.000  0.000  0.000  0.428

band     5 # energy    7.73334615 # occ.  0.00000000

ion      s     py     pz     px    dxy    dyz    dz2    dxz  x2-y2    tot
    1  0.150  0.019  0.019  0.019  0.000  0.000  0.000  0.000  0.000  0.206
    2  0.150  0.019  0.019  0.019  0.000  0.000  0.000  0.000  0.000  0.206
tot    0.299  0.038  0.038  0.038  0.000  0.000  0.000  0.000  0.000  0.413

band     6 # energy    9.06897573 # occ.  0.00000000

ion      s     py     pz     px    dxy    dyz    dz2    dxz  x2-y2    tot
    1  0.000  0.025  0.025  0.099  0.000  0.000  0.000  0.000  0.000  0.149
    2  0.000  0.025  0.025  0.099  0.000  0.000  0.000  0.000  0.000  0.149
tot    0.000  0.049  0.050  0.198  0.000  0.000  0.000  0.000  0.000  0.297

band     7 # energy    9.06899784 # occ.  0.00000000

ion      s     py     pz     px    dxy    dyz    dz2    dxz  x2-y2    tot
    1  0.000  0.074  0.074  0.000  0.000  0.000  0.000  0.000  0.000  0.149
    2  0.000  0.074  0.074  0.000  0.000  0.000  0.000  0.000  0.000  0.149
tot    0.000  0.149  0.148  0.000  0.000  0.000  0.000  0.000  0.000  0.297

band     8 # energy   11.87334186 # occ.  0.00000000

ion      s     py     pz     px    dxy    dyz    dz2    dxz  x2-y2    tot
    1  0.132  0.047  0.047  0.047  0.000  0.000  0.000  0.000  0.000  0.274
    2  0.132  0.047  0.047  0.047  0.000  0.000  0.000  0.000  0.000  0.274
tot    0.265  0.094  0.094  0.094  0.000  0.000  0.000  0.000  0.000  0.548


 k-point     9 :    0.25000000 0.00000000 0.00000000     weight = 0.00024414

band     1 # energy   -5.40595604 # occ.  2.00000000

ion      s     py     pz     px    dxy    dyz    dz2    dxz  x2-y2    tot
    1  0.211  0.003  0.003  0.003  0.000  0.000  0.000  0.000  0.000  0.219
    2  0.211  0.003  0.003  0.003  0.000  0.000  0.000  0.000  0.000  0.219
tot    0.421  0.005  0.005  0.005  0.000  0.000  0.000  0.000  0.000  0.437

band     2 # energy    1.75036238 # occ.  2.00000000

ion      s     py     pz     px    dxy    dyz    dz2    dxz  x2-y2    tot
    1  0.097  0.040  0.040  0.040  0.000  0.000  0.000  0.000  0.000  0.216
    2  0.097  0.040  0.040  0.040  0.000  0.000  0.000  0.000  0.000  0.216
tot    0.195  0.079  0.079  0.079  0.000  0.000  0.000  0.000  0.000  0.433

band     3 # energy    4.89772419 # occ.  2.00000000

ion      s     py     pz     px    dxy    dyz    dz2    dxz  x2-y2    tot
    1  0.000  0.036  0.036  0.143  0.000  0.000  0.000  0.000  0.000  0.214
    2  0.000  0.036  0.036  0.143  0.000  0.000  0.000  0.000  0.000  0.214
tot    0.000  0.071  0.072  0.286  0.000  0.000  0.000  0.000  0.000  0.429

band     4 # energy    4.89773865 # occ.  2.00000000

ion      s     py     pz     px    dxy    dyz    dz2    dxz  x2-y2    tot
    1  0.000  0.107  0.107  0.000  0.000  0.000  0.000  0.000  0.000  0.214
    2  0.000  0.107  0.107  0.000  0.000  0.000  0.000  0.000  0.000  0.214
tot    0.000  0.215  0.214  0.000  0.000  0.000  0.000  0.000  0.000  0.429

band     5 # energy    7.61504927 # occ.  0.00000000

ion      s     py     pz     px    dxy    dyz    dz2    dxz  x2-y2    tot
    1  0.158  0.016  0.016  0.016  0.000  0.000  0.000  0.000  0.000  0.206
    2  0.158  0.016  0.016  0.016  0.000  0.000  0.000  0.000  0.000  0.206
tot    0.315  0.033  0.033  0.033  0.000  0.000  0.000  0.000  0.000  0.413

band     6 # energy    9.14694203 # occ.  0.00000000

ion      s     py     pz     px    dxy    dyz    dz2    dxz  x2-y2    tot
    1  0.000  0.023  0.024  0.094  0.000  0.000  0.000  0.000  0.000  0.141
    2  0.000  0.023  0.024  0.094  0.000  0.000  0.000  0.000  0.000  0.141
tot    0.000  0.047  0.047  0.188  0.000  0.000  0.000  0.000  0.000  0.282

band     7 # energy    9.14696838 # occ.  0.00000000

ion      s     py     pz     px    dxy    dyz    dz2    dxz  x2-y2    tot
    1  0.000  0.071  0.070  0.000  0.000  0.000  0.000  0.000  0.000  0.141
    2  0.000  0.071  0.070  0.000  0.000  0.000  0.000  0.000  0.000  0.141
tot    0.000  0.141  0.141  0.000  0.000  0.000  0.000  0.000  0.000  0.282

band     8 # energy   12.41358743 # occ.  0.00000000

ion      s     py     pz     px    dxy    dyz    dz2    dxz  x2-y2    tot
    1  0.111  0.051  0.051  0.051  0.000  0.000  0.000  0.000  0.000  0.264
    2  0.111  0.051  0.051  0.051  0.000  0.000  0.000  0.000  0.000  0.264
tot    0.222  0.102  0.102  0.102  0.000  0.000  0.000  0.000  0.000  0.528


 k-point    10 :    0.28125000 0.00000000 0.00000000     weight = 0.00024414

band     1 # energy   -5.20654728 # occ.  2.00000000

ion      s     py     pz     px    dxy    dyz    dz2    dxz  x2-y2    tot
    1  0.210  0.003  0.003  0.003  0.000  0.000  0.000  0.000  0.000  0.220
    2  0.210  0.003  0.003  0.003  0.000  0.000  0.000  0.000  0.000  0.220
tot    0.421  0.006  0.006  0.006  0.000  0.000  0.000  0.000  0.000  0.440

band     2 # energy    1.20823012 # occ.  2.00000000

ion      s     py     pz     px    dxy    dyz    dz2    dxz  x2-y2    tot
    1  0.102  0.037  0.037  0.037  0.000  0.000  0.000  0.000  0.000  0.214
    2  0.102  0.037  0.037  0.037  0.000  0.000  0.000  0.000  0.000  0.214
tot    0.204  0.075  0.075  0.075  0.000  0.000  0.000  0.000  0.000  0.429

band     3 # energy    4.79839726 # occ.  2.00000000

ion      s     py     pz     px    dxy    dyz    dz2    dxz  x2-y2    tot
    1  0.000  0.036  0.036  0.143  0.000  0.000  0.000  0.000  0.000  0.215
    2  0.000  0.036  0.036  0.143  0.000  0.000  0.000  0.000  0.000  0.215
tot    0.000  0.071  0.072  0.287  0.000  0.000  0.000  0.000  0.000  0.430

band     4 # energy    4.79841202 # occ.  2.00000000

ion      s     py     pz     px    dxy    dyz    dz2    dxz  x2-y2    tot
    1  0.000  0.108  0.107  0.000  0.000  0.000  0.000  0.000  0.000  0.215
    2  0.000  0.108  0.107  0.000  0.000  0.000  0.000  0.000  0.000  0.215
tot    0.000  0.215  0.215  0.000  0.000  0.000  0.000  0.000  0.000  0.430

band     5 # energy    7.50703174 # occ.  0.00000000

ion      s     py     pz     px    dxy    dyz    dz2    dxz  x2-y2    tot
    1  0.164  0.014  0.014  0.014  0.000  0.000  0.000  0.000  0.000  0.207
    2  0.164  0.014  0.014  0.014  0.000  0.000  0.000  0.000  0.000  0.207
tot    0.329  0.028  0.028  0.028  0.000  0.000  0.000  0.000  0.000  0.414

band     6 # energy    9.18099000 # occ.  0.00000000

ion      s     py     pz     px    dxy    dyz    dz2    dxz  x2-y2    tot
    1  0.000  0.022  0.022  0.088  0.000  0.000  0.000  0.000  0.000  0.132
    2  0.000  0.022  0.022  0.088  0.000  0.000  0.000  0.000  0.000  0.132
tot    0.000  0.044  0.044  0.176  0.000  0.000  0.000  0.000  0.000  0.264

band     7 # energy    9.18101908 # occ.  0.00000000

ion      s     py     pz     px    dxy    dyz    dz2    dxz  x2-y2    tot
    1  0.000  0.066  0.066  0.000  0.000  0.000  0.000  0.000  0.000  0.132
    2  0.000  0.066  0.066  0.000  0.000  0.000  0.000  0.000  0.000  0.132
tot    0.000  0.132  0.132  0.000  0.000  0.000  0.000  0.000  0.000  0.264

band     8 # energy   12.91045077 # occ.  0.00000000

ion      s     py     pz     px    dxy    dyz    dz2    dxz  x2-y2    tot
    1  0.083  0.054  0.054  0.054  0.000  0.000  0.000  0.000  0.000  0.245
    2  0.083  0.054  0.054  0.054  0.000  0.000  0.000  0.000  0.000  0.245
tot    0.166  0.108  0.108  0.108  0.000  0.000  0.000  0.000  0.000  0.490


 k-point    11 :    0.31250000 0.00000000 0.00000000     weight = 0.00024414

band     1 # energy   -4.99057392 # occ.  2.00000000

ion      s     py     pz     px    dxy    dyz    dz2    dxz  x2-y2    tot
    1  0.211  0.004  0.004  0.004  0.000  0.000  0.000  0.000  0.000  0.222
    2  0.211  0.004  0.004  0.004  0.000  0.000  0.000  0.000  0.000  0.222
tot    0.421  0.008  0.008  0.008  0.000  0.000  0.000  0.000  0.000  0.444

band     2 # energy    0.69131698 # occ.  2.00000000
