    2    2    1    1
  0.2263565E+02  0.4000485E-09  0.4000485E-09  0.4000485E-09  0.5000000E-15
   1.0000000000000000E-004
  CAR 
 unknown system                          
     28    120     18

  0.0000000E+00  0.0000000E+00  0.0000000E+00  0.8333333E-02
      1        -19.606902   1.000000
      2        -19.606902   1.000000
      3        -19.606901   1.000000
      4        -19.574305   1.000000
      5        -19.574305   1.000000
      6        -19.360303   1.000000
      7        -19.360303   1.000000
      8        -19.360301   1.000000
      9        -19.348461   1.000000
     10        -19.348461   1.000000
     11         -7.666617   1.000000
     12          5.117344   0.893371
     13          5.117360   0.893291
     14          5.117360   0.893291
     15          5.172742   0.373645
     16          7.627103   0.000000
     17          7.627110   0.000000
     18          7.627110   0.000000

  0.2631579E-01  0.0000000E+00  0.2631579E-01  0.8333333E-02
      1        -19.607800   1.000000
      2        -19.607314   1.000000
      3        -19.607313   1.000000
      4        -19.573900   1.000000
      5        -19.572824   1.000000
      6        -19.363742   1.000000
      7        -19.359889   1.000000
      8        -19.359888   1.000000
      9        -19.348897   1.000000
     10        -19.345973   1.000000
     11         -7.655299   1.000000
     12          4.636469   1.000000
     13          5.058948   0.998112
     14          5.058958   0.998111
     15          5.649817   0.000000
     16          7.589048   0.000000
     17          7.699921   0.000000
     18          7.699926   0.000000

  0.5263158E-01  0.0000000E+00  0.5263158E-01  0.8333333E-02
      1        -19.609703   1.000000
      2        -19.608127   1.000000
      3        -19.608126   1.000000
      4        -19.572688   1.000000
      5        -19.568762   1.000000
      6        -19.370683   1.000000
      7        -19.358657   1.000000
      8        -19.358656   1.000000
      9        -19.349996   1.000000
     10        -19.341661   1.000000
     11         -7.621302   1.000000
     12          4.128329   1.000000
     13          4.901514   1.000000
     14          4.901524   1.000000
     15          6.144650   0.000000
     16          7.482274   0.000000
     17          7.900509   0.000000
     18          7.900514   0.000000

  0.7894737E-01  0.0000000E+00  0.7894737E-01  0.8333333E-02
      1        -19.612022   1.000000
      2        -19.609436   1.000000
      3        -19.609435   1.000000
      4        -19.570678   1.000000
      5        -19.562845   1.000000
      6        -19.378978   1.000000
      7        -19.356653   1.000000
      8        -19.356652   1.000000
      9        -19.351820   1.000000
     10        -19.337719   1.000000
     11         -7.564684   1.000000
     12          3.621186   1.000000
     13          4.681004   1.000000
     14          4.681013   1.000000
     15          6.622947   0.000000
     16          7.324554   0.000000
     17          8.192661   0.000000
     18          8.192666   0.000000

  0.1052632E+00  0.0000000E+00  0.1052632E+00  0.8333333E-02
      1        -19.614219   1.000000
      2        -19.611201   1.000000
      3        -19.611200   1.000000
      4        -19.567883   1.000000
      5        -19.555684   1.000000
      6        -19.388168   1.000000
      7        -19.354354   1.000000
      8        -19.353979   1.000000
      9        -19.353979   1.000000
     10        -19.334627   1.000000
     11         -7.485552   1.000000
     12          3.116466   1.000000
     13          4.428338   1.000000
     14          4.428347   1.000000
     15          7.071498   0.000000
     16          7.135749   0.000000
     17          8.545032   0.000000
     18          8.545038   0.000000

  0.1315789E+00  0.0000000E+00  0.1315789E+00  0.8333333E-02
      1        -19.615977   1.000000
      2        -19.613420   1.000000
      3        -19.613420   1.000000
      4        -19.564359   1.000000
      5        -19.547467   1.000000
      6        -19.398037   1.000000
      7        -19.357622   1.000000
      8        -19.350738   1.000000
      9        -19.350737   1.000000
     10        -19.332358   1.000000
     11         -7.383980   1.000000
     12          2.614951   1.000000
     13          4.163643   1.000000
     14          4.163651   1.000000
     15          6.932593   0.000000
     16          7.469257   0.000000
     17          8.936935   0.000000
     18          8.936941   0.000000

  0.1578947E+00  0.0000000E+00  0.1578947E+00  0.8333333E-02
      1        -19.617115   1.000000
      2        -19.615854   1.000000
      3        -19.615854   1.000000
      4        -19.560092   1.000000
      5        -19.538598   1.000000
      6        -19.408524   1.000000
      7        -19.361537   1.000000
      8        -19.347009   1.000000
      9        -19.347008   1.000000
     10        -19.331155   1.000000
     11         -7.260132   1.000000
     12          2.117154   1.000000
     13          3.899089   1.000000
     14          3.899097   1.000000
     15          6.727474   0.000000
     16          7.784427   0.000000
     17          9.355540   0.000000
     18          9.355547   0.000000

  0.1842105E+00  0.0000000E+00  0.1842105E+00  0.8333333E-02
      1        -19.618577   1.000000
      2        -19.618576   1.000000
      3        -19.617548   1.000000
      4        -19.555179   1.000000
      5        -19.529151   1.000000
      6        -19.419537   1.000000
      7        -19.366116   1.000000
      8        -19.342922   1.000000
      9        -19.342921   1.000000
     10        -19.331016   1.000000
     11         -7.114196   1.000000
     12          1.623468   1.000000
     13          3.642115   1.000000
     14          3.642123   1.000000
     15          6.529092   0.000000
     16          7.977888   0.000000
     17          9.792742   0.000000
     18          9.792749   0.000000

  0.2105263E+00  0.0000000E+00  0.2105263E+00  0.8333333E-02
      1        -19.621356   1.000000
      2        -19.621355   1.000000
      3        -19.617152   1.000000
      4        -19.549538   1.000000
      5        -19.519168   1.000000
      6        -19.430992   1.000000
      7        -19.371317   1.000000
      8        -19.338519   1.000000
      9        -19.338518   1.000000
     10        -19.331931   1.000000
     11         -6.946366   1.000000
     12          1.134217   1.000000
     13          3.397450   1.000000
     14          3.397458   1.000000
     15          6.343474   0.000000
     16          8.022497   0.000000
     17         10.243114   0.000000
     18         10.243122   0.000000

  0.2368421E+00  0.0000000E+00  0.2368421E+00  0.8333333E-02
      1        -19.624168   1.000000
      2        -19.624167   1.000000
      3        -19.615918   1.000000
      4        -19.543278   1.000000
      5        -19.508779   1.000000
      6        -19.442702   1.000000
      7        -19.377115   1.000000
      8        -19.333994   1.000000
      9        -19.333993   1.000000
     10        -19.333772   1.000000
     11         -6.756937   1.000000
     12          0.649788   1.000000
     13          3.168247   1.000000
     14          3.168254   1.000000
     15          6.174840   0.000000
     16          7.927834   0.000000
     17         10.702778   0.000000
     18         10.702786   0.000000

  0.2631579E+00  0.0000000E+00  0.2631579E+00  0.8333333E-02
      1        -19.626943   1.000000
      2        -19.626943   1.000000
      3        -19.613823   1.000000
      4        -19.536448   1.000000
      5        -19.498070   1.000000
      6        -19.454632   1.000000
      7        -19.383476   1.000000
      8        -19.336605   1.000000
      9        -19.329475   1.000000
     10        -19.329474   1.000000
     11         -6.546212   1.000000
     12          0.170659   1.000000
     13          2.956709   1.000000
     14          2.956716   1.000000
     15          6.026195   0.000000
     16          7.735298   0.000000
     17         11.168732   0.000000
     18         11.168741   0.000000

  0.2894737E+00  0.0000000E+00  0.2894737E+00  0.8333333E-02
      1        -19.629712   1.000000
      2        -19.629711   1.000000
      3        -19.610864   1.000000
      4        -19.529098   1.000000
      5        -19.487122   1.000000
      6        -19.466710   1.000000
      7        -19.390388   1.000000
      8        -19.340427   1.000000
      9        -19.325106   1.000000
     10        -19.325106   1.000000
     11         -6.314539   1.000000
     12         -0.302619   1.000000
     13          2.764438   1.000000
     14          2.764445   1.000000
     15          5.899744   0.000000
     16          7.490073   0.000000
     17         11.638437   0.000000
     18         11.638445   0.000000

  0.3157895E+00  0.0000000E+00  0.3157895E+00  0.8333333E-02
      1        -19.632123   1.000000
      2        -19.632122   1.000000
      3        -19.607052   1.000000
      4        -19.521358   1.000000
      5        -19.478876   1.000000
      6        -19.475974   1.000000
      7        -19.397822   1.000000
      8        -19.345146   1.000000
      9        -19.320929   1.000000
     10        -19.320928   1.000000
     11         -6.062380   1.000000
     12         -0.769309   1.000000
     13          2.592634   1.000000
     14          2.592641   1.000000
     15          5.797172   0.000000
     16          7.225278   0.000000
     17         12.109315   0.000000
     18         12.109323   0.000000

  0.3421053E+00  0.0000000E+00  0.3421053E+00  0.8333333E-02
      1        -19.634442   1.000000
      2        -19.634441   1.000000
      3        -19.602382   1.000000
      4        -19.513146   1.000000
      5        -19.490902   1.000000
      6        -19.464849   1.000000
      7        -19.405634   1.000000
      8        -19.350763   1.000000
      9        -19.317188   1.000000
     10        -19.317187   1.000000
     11         -5.790187   1.000000
     12         -1.228575   1.000000
     13          2.442210   1.000000
     14          2.442217   1.000000
     15          5.719774   0.000000
     16          6.961628   0.000000
     17         12.578129   0.000000
     18         12.578138   0.000000

  0.3684211E+00  0.0000000E+00  0.3684211E+00  0.8333333E-02
      1        -19.636468   1.000000
      2        -19.636467   1.000000
      3        -19.596757   1.000000
      4        -19.504481   1.000000
      5        -19.502787   1.000000
      6        -19.453540   1.000000
      7        -19.413845   1.000000
      8        -19.357212   1.000000
      9        -19.313736   1.000000
     10        -19.313735   1.000000
     11         -5.498497   1.000000
     12         -1.679507   1.000000
     13          2.313888   1.000000
     14          2.313895   1.000000
     15          5.668594   0.000000
     16          6.711435   0.000000
     17         13.040022   0.000000
     18         13.040031   0.000000

  0.3947368E+00  0.0000000E+00  0.3947368E+00  0.8333333E-02
      1        -19.638163   1.000000
      2        -19.638162   1.000000
      3        -19.590372   1.000000
      4        -19.514463   1.000000
      5        -19.495639   1.000000
      6        -19.442388   1.000000
      7        -19.422380   1.000000
      8        -19.364449   1.000000
      9        -19.310856   1.000000
     10        -19.310855   1.000000
     11         -5.187959   1.000000
     12         -2.121052   1.000000
     13          2.208218   1.000000
     14          2.208225   1.000000
     15          5.644505   0.000000
     16          6.481918   0.000000
     17         13.486800   0.000000
     18         13.486810   0.000000

  0.4210526E+00  0.0000000E+00  0.4210526E+00  0.8333333E-02
      1        -19.639510   1.000000
      2        -19.639509   1.000000
      3        -19.583181   1.000000
      4        -19.525820   1.000000
      5        -19.486577   1.000000
      6        -19.431369   1.000000
      7        -19.431193   1.000000
      8        -19.372404   1.000000
      9        -19.308548   1.000000
     10        -19.308547   1.000000
     11         -4.859216   1.000000
     12         -2.552142   1.000000
     13          2.125619   1.000000
     14          2.125626   1.000000
     15          5.648224   0.000000
     16          6.277283   0.000000
     17         13.903674   0.000000
     18         13.903684   0.000000

  0.4473684E+00  0.0000000E+00  0.4473684E+00  0.8333333E-02
      1        -19.640462   1.000000
      2        -19.640462   1.000000
      3        -19.575157   1.000000
      4        -19.536754   1.000000
      5        -19.477381   1.000000
      6        -19.440248   1.000000
      7        -19.420532   1.000000
      8        -19.381010   1.000000
      9        -19.306848   1.000000
     10        -19.306847   1.000000
     11         -4.513041   1.000000
     12         -2.971702   1.000000
     13          2.066407   1.000000
     14          2.066414   1.000000
     15          5.680352   0.000000
     16          6.099936   0.000000
     17         14.263614   0.000000
     18         14.263624   0.000000

  0.4736842E+00  0.0000000E+00  0.4736842E+00  0.8333333E-02
      1        -19.641042   1.000000
      2        -19.641041   1.000000
      3        -19.566487   1.000000
      4        -19.547200   1.000000
      5        -19.468071   1.000000
      6        -19.449439   1.000000
      7        -19.410015   1.000000
      8        -19.390150   1.000000
      9        -19.305800   1.000000
     10        -19.305799   1.000000
     11         -4.150281   1.000000
     12         -3.378607   1.000000
     13          2.030793   1.000000
     14          2.030800   1.000000
     15          5.741366   0.000000
     16          5.951173   0.000000
     17         14.520760   0.000000
     18         14.520771   0.000000

  0.5000000E+00  0.0000000E+00  0.5000000E+00  0.8333333E-02
      1        -19.641243   1.000000
      2        -19.641242   1.000000
      3        -19.557149   1.000000
      4        -19.557146   1.000000
      5        -19.458735   1.000000
      6        -19.458735   1.000000
      7        -19.399864   1.000000
      8        -19.399862   1.000000
      9        -19.305454   1.000000
     10        -19.305453   1.000000
     11         -3.771807   1.000000
     12         -3.771805   1.000000
     13          2.018908   1.000000
     14          2.018915   1.000000
     15          5.831593   0.000000
     16          5.831597   0.000000
     17         14.616683   0.000000
     18         14.616694   0.000000

  0.5000000E+00  0.0000000E+00  0.5000000E+00  0.8333333E-02
      1        -19.641243   1.000000
      2        -19.641242   1.000000
      3        -19.557149   1.000000
      4        -19.557146   1.000000
      5        -19.458735   1.000000
      6        -19.458735   1.000000
      7        -19.399864   1.000000
      8        -19.399862   1.000000
      9        -19.305454   1.000000
     10        -19.305453   1.000000
     11         -3.771807   1.000000
     12         -3.771805   1.000000
     13          2.018908   1.000000
     14          2.018915   1.000000
     15          5.831593   0.000000
     16          5.831597   0.000000
     17         14.616683   0.000000
     18         14.616694   0.000000

  0.5065789E+00  0.1315789E-01  0.5065789E+00  0.8333333E-02
      1        -19.641362   1.000000
      2        -19.641248   1.000000
      3        -19.557139   1.000000
      4        -19.556894   1.000000
      5        -19.458769   1.000000
      6        -19.458716   1.000000
      7        -19.400082   1.000000
      8        -19.399868   1.000000
      9        -19.305451   1.000000
     10        -19.305354   1.000000
     11         -3.772800   1.000000
     12         -3.770168   1.000000
     13          2.010086   1.000000
     14          2.020181   1.000000
     15          5.832783   0.000000
     16          5.845948   0.000000
     17         14.601707   0.000000
     18         14.606568   0.000000

  0.5131579E+00  0.2631579E-01  0.5131579E+00  0.8333333E-02
      1        -19.641716   1.000000
      2        -19.641262   1.000000
      3        -19.557110   1.000000
      4        -19.556145   1.000000
      5        -19.458871   1.000000
      6        -19.458659   1.000000
      7        -19.400736   1.000000
      8        -19.399881   1.000000
      9        -19.305442   1.000000
     10        -19.305063   1.000000
     11         -3.775797   1.000000
     12         -3.765252   1.000000
     13          1.984085   1.000000
     14          2.023976   1.000000
     15          5.836354   0.000000
     16          5.888551   0.000000
     17         14.558047   0.000000
     18         14.576529   0.000000

  0.5197368E+00  0.3947368E-01  0.5197368E+00  0.8333333E-02
      1        -19.642288   1.000000
      2        -19.641285   1.000000
      3        -19.557061   1.000000
      4        -19.554917   1.000000
      5        -19.459039   1.000000
      6        -19.458563   1.000000
      7        -19.401814   1.000000
      8        -19.399902   1.000000
      9        -19.305428   1.000000
     10        -19.304590   1.000000
     11         -3.780837   1.000000
     12         -3.757058   1.000000
     13          1.942217   1.000000
     14          2.030297   1.000000
     15          5.842300   0.000000
     16          5.958122   0.000000
     17         14.489038   0.000000
     18         14.527551   0.000000

  0.5263158E+00  0.5263158E-01  0.5263158E+00  0.8333333E-02
      1        -19.643086   1.000000
      2        -19.641318   1.000000
      3        -19.557003   1.000000
      4        -19.553242   1.000000
      5        -19.459273   1.000000
      6        -19.458429   1.000000
      7        -19.403311   1.000000
      8        -19.399935   1.000000
      9        -19.305409   1.000000
     10        -19.303971   1.000000
     11         -3.787986   1.000000
     12         -3.745585   1.000000
     13          1.886438   1.000000
     14          2.039137   1.000000
     15          5.850611   0.000000
     16          6.052755   0.000000
     17         14.399051   0.000000
     18         14.461104   0.000000

  0.5328947E+00  0.6578947E-01  0.5328947E+00  0.8333333E-02
      1        -19.644016   1.000000
      2        -19.641359   1.000000
      3        -19.556918   1.000000
      4        -19.551134   1.000000
      5        -19.459573   1.000000
      6        -19.458255   1.000000
      7        -19.405172   1.000000
      8        -19.399972   1.000000
      9        -19.305385   1.000000
     10        -19.303189   1.000000
     11         -3.797333   1.000000
     12         -3.730834   1.000000
     13          1.819100   1.000000
     14          2.050487   1.000000
     15          5.861275   0.000000
     16          6.170182   0.000000
     17         14.292522   0.000000
     18         14.378985   0.000000

  0.5394737E+00  0.7894737E-01  0.5394737E+00  0.8333333E-02
      1        -19.645071   1.000000
      2        -19.641404   1.000000
      3        -19.556816   1.000000
      4        -19.548566   1.000000
      5        -19.459939   1.000000
      6        -19.457966   1.000000
      7        -19.407383   1.000000
      8        -19.400016   1.000000
      9        -19.305355   1.000000
     10        -19.302274   1.000000
     11         -3.808994   1.000000
     12         -3.712805   1.000000
     13          1.742682   1.000000
     14          2.064336   1.000000
     15          5.874277   0.000000
     16          6.308016   0.000000
     17         14.173380   0.000000
     18         14.283144   0.000000

  0.5460526E+00  0.9210526E-01  0.5460526E+00  0.8333333E-02
      1        -19.646131   1.000000
      2        -19.641460   1.000000
      3        -19.556676   1.000000
      4        -19.545753   1.000000
      5        -19.460346   1.000000
      6        -19.457715   1.000000
      7        -19.409911   1.000000
      8        -19.400068   1.000000
      9        -19.305306   1.000000
     10        -19.301282   1.000000
     11         -3.823102   1.000000
     12         -3.691497   1.000000
     13          1.659622   1.000000
     14          2.080672   1.000000
     15          5.889597   0.000000
     16          6.463931   0.000000
     17         14.044846   0.000000
     18         14.175528   0.000000

  0.5526316E+00  0.1052632E+00  0.5526316E+00  0.8333333E-02
      1        -19.647356   1.000000
      2        -19.641523   1.000000
      3        -19.556543   1.000000
      4        -19.542599   1.000000
      5        -19.460844   1.000000
      6        -19.457425   1.000000
      7        -19.412739   1.000000
      8        -19.400126   1.000000
      9        -19.305270   1.000000
     10        -19.300228   1.000000
     11         -3.839808   1.000000
     12         -3.666912   1.000000
     13          1.572191   1.000000
     14          2.099478   1.000000
     15          5.907210   0.000000
     16          6.635781   0.000000
     17         13.909454   0.000000
     18         14.057985   0.000000

  0.5592105E+00  0.1184211E+00  0.5592105E+00  0.8333333E-02
      1        -19.648614   1.000000
      2        -19.641625   1.000000
      3        -19.556396   1.000000
      4        -19.539176   1.000000
      5        -19.461407   1.000000
      6        -19.457186   1.000000
      7        -19.415836   1.000000
      8        -19.400191   1.000000
      9        -19.305232   1.000000
     10        -19.299177   1.000000
     11         -3.859276   1.000000
     12         -3.639049   1.000000
     13          1.482431   1.000000
     14          2.120733   1.000000
     15          5.927088   0.000000
     16          6.821655   0.000000
     17         13.769174   0.000000
     18         13.932199   0.000000

  0.5657895E+00  0.1315789E+00  0.5657895E+00  0.8333333E-02
      1        -19.649878   1.000000
      2        -19.641701   1.000000
      3        -19.556236   1.000000
      4        -19.535496   1.000000
      5        -19.462032   1.000000
      6        -19.456818   1.000000
      7        -19.419165   1.000000
      8        -19.400259   1.000000
      9        -19.305190   1.000000
     10        -19.298074   1.000000
     11         -3.881681   1.000000
     12         -3.607908   1.000000
     13          1.392137   1.000000
     14          2.144417   1.000000
     15          5.949198   0.000000
     16          7.019888   0.000000
     17         13.625535   0.000000
     18         13.799673   0.000000

  0.5723684E+00  0.1447368E+00  0.5723684E+00  0.8333333E-02
      1        -19.651185   1.000000
      2        -19.641774   1.000000
      3        -19.556050   1.000000
      4        -19.531623   1.000000
      5        -19.462695   1.000000
      6        -19.456389   1.000000
      7        -19.422690   1.000000
      8        -19.400333   1.000000
      9        -19.305165   1.000000
     10        -19.296962   1.000000
     11         -3.907204   1.000000
     12         -3.573490   1.000000
     13          1.302869   1.000000
     14          2.170507   1.000000
     15          5.973503   0.000000
     16          7.229041   0.000000
     17         13.479724   0.000000
     18         13.661715   0.000000

  0.5789474E+00  0.1578947E+00  0.5789474E+00  0.8333333E-02
      1        -19.652392   1.000000
      2        -19.641860   1.000000
      3        -19.555873   1.000000
      4        -19.527538   1.000000
      5        -19.463450   1.000000
      6        -19.455942   1.000000
      7        -19.426412   1.000000
      8        -19.400410   1.000000
      9        -19.305124   1.000000
     10        -19.295900   1.000000
     11         -3.936021   1.000000
     12         -3.535795   1.000000
     13          1.215971   1.000000
     14          2.198973   1.000000
     15          5.999958   0.000000
     16          7.447884   0.000000
     17         13.332691   0.000000
     18         13.519455   0.000000

  0.5855263E+00  0.1710526E+00  0.5855263E+00  0.8333333E-02
      1        -19.653547   1.000000
      2        -19.641968   1.000000
      3        -19.555717   1.000000
      4        -19.523327   1.000000
      5        -19.464268   1.000000
      6        -19.455453   1.000000
      7        -19.430308   1.000000
      8        -19.400514   1.000000
      9        -19.305103   1.000000
     10        -19.294911   1.000000
     11         -3.968303   1.000000
     12         -3.494824   1.000000
     13          1.132593   1.000000
     14          2.229785   1.000000
     15          6.028514   0.000000
     16          7.675365   0.000000
     17         13.185189   0.000000
     18         13.373861   0.000000

  0.5921053E+00  0.1842105E+00  0.5921053E+00  0.8333333E-02
      1        -19.654626   1.000000
      2        -19.642060   1.000000
      3        -19.555528   1.000000
      4        -19.518930   1.000000
      5        -19.465144   1.000000
      6        -19.454924   1.000000
      7        -19.434329   1.000000
      8        -19.400595   1.000000
      9        -19.305064   1.000000
     10        -19.293956   1.000000
     11         -4.004208   1.000000
     12         -3.450576   1.000000
     13          1.053704   1.000000
     14          2.262911   1.000000
     15          6.059116   0.000000
     16          7.910570   0.000000
     17         13.037837   0.000000
     18         13.225758   0.000000

  0.5986842E+00  0.1973684E+00  0.5986842E+00  0.8333333E-02
      1        -19.655633   1.000000
      2        -19.642153   1.000000
      3        -19.555344   1.000000
      4        -19.514475   1.000000
      5        -19.466084   1.000000
      6        -19.454358   1.000000
      7        -19.438510   1.000000
      8        -19.400678   1.000000
      9        -19.305028   1.000000
     10        -19.293112   1.000000
     11         -4.043862   1.000000
     12         -3.403052   1.000000
     13          0.980131   1.000000
     14          2.298315   1.000000
     15          6.091701   0.000000
     16          8.152691   0.000000
     17         12.891150   0.000000
     18         13.075852   0.000000

  0.6052632E+00  0.2105263E+00  0.6052632E+00  0.8333333E-02
      1        -19.656531   1.000000
      2        -19.642141   1.000000
      3        -19.555153   1.000000
      4        -19.509834   1.000000
      5        -19.467074   1.000000
      6        -19.453715   1.000000
      7        -19.442746   1.000000
      8        -19.400753   1.000000
      9        -19.304996   1.000000
     10        -19.292306   1.000000
     11         -4.087364   1.000000
     12         -3.352252   1.000000
     13          0.912559   1.000000
     14          2.335955   1.000000
     15          6.126199   0.000000
     16          8.401004   0.000000
     17         12.745568   0.000000
     18         12.924743   0.000000

  0.6118421E+00  0.2236842E+00  0.6118421E+00  0.8333333E-02
      1        -19.657327   1.000000
      2        -19.642208   1.000000
      3        -19.554964   1.000000
      4        -19.505105   1.000000
      5        -19.468085   1.000000
      6        -19.453042   1.000000
      7        -19.447068   1.000000
      8        -19.400824   1.000000
      9        -19.304921   1.000000
     10        -19.291594   1.000000
     11         -4.134784   1.000000
     12         -3.298177   1.000000
     13          0.851543   1.000000
     14          2.375790   1.000000
     15          6.162529   0.000000
     16          8.654834   0.000000
     17         12.601468   0.000000
     18         12.772941   0.000000

  0.6184211E+00  0.2368421E+00  0.6184211E+00  0.8333333E-02
      1        -19.657978   1.000000
      2        -19.642296   1.000000
      3        -19.554773   1.000000
      4        -19.500290   1.000000
      5        -19.469144   1.000000
      6        -19.452344   1.000000
      7        -19.451429   1.000000
      8        -19.400897   1.000000
      9        -19.304901   1.000000
     10        -19.290987   1.000000
     11         -4.186148   1.000000
     12         -3.240827   1.000000
     13          0.797524   1.000000
     14          2.417771   1.000000
     15          6.200602   0.000000
     16          8.913524   0.000000
     17         12.459181   0.000000
     18         12.620881   0.000000

  0.6250000E+00  0.2500000E+00  0.6250000E+00  0.8333333E-02
      1        -19.658561   1.000000
      2        -19.642382   1.000000
      3        -19.554606   1.000000
      4        -19.495435   1.000000
      5        -19.470310   1.000000
      6        -19.455877   1.000000
      7        -19.451604   1.000000
      8        -19.400967   1.000000
      9        -19.304890   1.000000
     10        -19.290510   1.000000
     11         -4.241441   1.000000
     12         -3.180205   1.000000
     13          0.750835   1.000000
     14          2.461848   1.000000
     15          6.240320   0.000000
     16          9.176389   0.000000
     17         12.319015   0.000000
     18         12.468945   0.000000

  0.3750000E+00  0.3750000E+00  0.7500000E+00  0.8333333E-02
      1        -19.658561   1.000000
      2        -19.642382   1.000000
      3        -19.554606   1.000000
      4        -19.495435   1.000000
      5        -19.470310   1.000000
      6        -19.455877   1.000000
      7        -19.451604   1.000000
      8        -19.400967   1.000000
      9        -19.304890   1.000000
     10        -19.290510   1.000000
     11         -4.241441   1.000000
     12         -3.180205   1.000000
     13          0.750835   1.000000
     14          2.461848   1.000000
     15          6.240320   0.000000
     16          9.176389   0.000000