       N       E                     dE             d eps       ncg     rms          rms(c)
DAV:   1    -0.284159786102E+04   -0.28416E+04   -0.69604E+04  4626   0.909E+03    0.136E+02
DAV:   2    -0.127486911919E+04    0.15667E+04   -0.24542E+03  7192   0.473E+02    0.941E+02
DAV:   3    -0.127054576149E+04    0.43234E+01   -0.28598E+02  5698   0.116E+02    0.120E+03
DAV:   4    -0.930058929279E+03    0.34049E+03   -0.13326E+04  5162   0.602E+02    0.307E+02
DAV:   5     0.591864805622E+02    0.98925E+03   -0.74423E+03  5034   0.146E+03    0.920E+01
DAV:   6    -0.103444179421E+03   -0.16263E+03   -0.18834E+03  6152   0.429E+02    0.111E+02
DAV:   7    -0.264251855481E+03   -0.16081E+03   -0.40668E+02  6916   0.542E+02    0.144E+02
DAV:   8    -0.576878215056E+03   -0.31263E+03   -0.63489E+02  7686   0.662E+02    0.199E+02
DAV:   9     0.614872649038E+02    0.63837E+03   -0.68616E+03  5340   0.183E+03    0.937E+01
DAV:  10    -0.169975512067E+01   -0.63187E+02   -0.95686E+02  5556   0.275E+02    0.105E+02
DAV:  11    -0.729733136068E+01   -0.55976E+01   -0.56466E+01  4800   0.702E+01    0.103E+02
DAV:  12    -0.736955931548E+01   -0.72228E-01   -0.14075E+00  4978   0.132E+01    0.106E+02
DAV:  13    -0.760477183322E+01   -0.23521E+00   -0.21036E+00  5668   0.255E+01    0.114E+02
DAV:  14    -0.777820737527E+01   -0.17344E+00   -0.17031E-01  5538   0.571E+00    0.115E+02
DAV:  15    -0.784570238574E+01   -0.67495E-01   -0.14231E-02  5614   0.168E+00    0.117E+02
DAV:  16    -0.744018132794E+01    0.40552E+00   -0.76174E-01  5618   0.152E+01    0.104E+02
DAV:  17    -0.738511174424E+01    0.55070E-01   -0.15709E-01  5712   0.666E+00    0.946E+01
DAV:  18    -0.732292176719E+01    0.62190E-01   -0.20233E-02  4736   0.894E-01    0.786E+01
DAV:  19    -0.724722721051E+01    0.75695E-01   -0.95953E-02  5556   0.288E+00    0.541E+01
DAV:  20    -0.724524355388E+01    0.19837E-02   -0.11914E-01  5556   0.331E+00    0.324E+01
DAV:  21    -0.728540973645E+01   -0.40166E-01   -0.70895E-02  5534   0.193E+00    0.152E+01
DAV:  22    -0.729912117344E+01   -0.13711E-01   -0.21208E-02  4330   0.106E+00    0.483E+00
DAV:  23    -0.727550483696E+01    0.23616E-01   -0.99805E-03  5428   0.188E+00    0.151E+00
DAV:  24    -0.723831617211E+01    0.37189E-01   -0.13729E-02  5762   0.212E+00    0.164E+00
DAV:  25    -0.720466932327E+01    0.33647E-01   -0.18627E-02  5692   0.224E+00    0.989E-01
DAV:  26    -0.717977190563E+01    0.24897E-01   -0.22387E-02  5662   0.242E+00    0.565E-01
DAV:  27    -0.716848210521E+01    0.11290E-01   -0.13202E-02  5662   0.183E+00    0.525E-01
DAV:  28    -0.716685607579E+01    0.16260E-02   -0.10699E-03  5616   0.432E-01    0.585E-01
DAV:  29    -0.716420738760E+01    0.26487E-02   -0.26889E-03  5550   0.943E-01    0.582E-01
DAV:  30    -0.716251517196E+01    0.16922E-02   -0.24419E-03  5732   0.953E-01    0.269E-01
DAV:  31    -0.716211550271E+01    0.39967E-03   -0.38297E-04  5724   0.372E-01    0.107E-01
DAV:  32    -0.716197945653E+01    0.13605E-03   -0.75837E-05  5416   0.170E-01    0.649E-02
DAV:  33    -0.716187634014E+01    0.10312E-03   -0.59882E-05  4740   0.168E-01    0.435E-02
DAV:  34    -0.716178915987E+01    0.87180E-04   -0.12585E-04  5412   0.243E-01    0.203E-02
DAV:  35    -0.716176947462E+01    0.19685E-04   -0.37667E-05  5514   0.128E-01    0.854E-03
DAV:  36    -0.716176744145E+01    0.20332E-05   -0.39609E-06  3538   0.354E-02    0.390E-03
DAV:  37    -0.716176724386E+01    0.19760E-06   -0.55876E-07  2238   0.120E-02
   1 F= -.71617672E+01 E0= -.71608423E+01  d E =-.184998E-02
