 vasp.6.3.2 27Jun22 (build Nov 28 2025 11:56:12) complex                         
 executed on             LinuxGNU date 2026.01.21  21:53:09
 running    2 mpi-ranks, with    1 threads/rank
 distrk:  each k-point on    2 cores,    1 groups
 distr:  one band on NCORE=   1 cores,    2 groups


--------------------------------------------------------------------------------------------------------


 INCAR:
   ISTART = 1            (Read existing wavefunction, if there)
   ISPIN = 1            (Non-Spin polarised DFT)
   LREAL = .FALSE.       (Projection operators: automatic)
   ENCUT = 450          (Cut-off energy for plane wave basis set, in eV)
   PREC = Accurate   (Precision level: Normal or Accurate, set Accurate when perform structure lattice relaxation calculation)
   LWAVE = .TRUE.        (Write WAVECAR or not)
   LCHARG = .TRUE.        (Write CHGCAR or not)
   ADDGRID = .TRUE.        (Increase grid, helps GGA convergence)
   ISMEAR = 0            (gaussian smearing method)
   SIGMA = 0.05         (please check the width of the smearing)
   NELM = 60           (Max electronic SCF steps)
   EDIFF = 1E-06        (SCF energy convergence, in eV)

 POTCAR:    PAW_PBE Ge_d 03Jul2007                
 POTCAR:    PAW_PBE Ge_d 03Jul2007                
   VRHFIN =Ge: 3d4s4p                                                                               
   LEXCH  = PE                                                                                      
   EATOM  =  2596.2402 eV,  190.8183 Ry                                                             
                                                                                                    
   TITEL  = PAW_PBE Ge_d 03Jul2007                                                                  
   LULTRA =        F    use ultrasoft PP ?                                                          
   IUNSCR =        1    unscreen: 0-lin 1-nonlin 2-no                                               
   RPACOR =    2.000    partial core radius                                                         
   POMASS =   72.610; ZVAL   =   14.000    mass and valenz                                          
   RCORE  =    2.300    outmost cutoff radius                                                       
   RWIGS  =    2.300; RWIGS  =    1.217    wigner-seitz radius (au A)                               
   ENMAX  =  310.294; ENMIN  =  232.720 eV                                                          
   ICORE  =        3    local potential                                                             
   LCOR   =        T    correct aug charges                                                         
   LPAW   =        T    paw PP                                                                      
   EAUG   =  531.356                                                                                
   DEXC   =    0.000                                                                                
   RMAX   =    2.342    core radius for proj-oper                                                   
   RAUG   =    1.300    factor for augmentation sphere                                              
   RDEP   =    2.318    radius for radial grids                                                     
   RDEPT  =    1.783    core radius for aug-charge                                                  
                                                                                                    
   Atomic configuration                                                                             
    9 entries                                                                                       
     n  l   j            E        occ.                                                              
     1  0  0.50    -10959.8463   2.0000                                                             
     2  0  0.50     -1371.6056   2.0000                                                             
     2  1  1.50     -1198.4791   6.0000                                                             
     3  0  0.50      -168.4733   2.0000                                                             
     3  1  1.50      -115.6019   6.0000                                                             
     3  2  2.50       -29.3106  10.0000                                                             
     4  0  0.50       -11.7309   2.0000                                                             
     4  1  0.50        -3.8952   2.0000                                                             
     4  3  2.50        -4.0817   0.0000                                                             
   Description                                                                                      
     l       E           TYP  RCUT    TYP  RCUT                                                     
     2    -29.3105938     23  2.200                                                                 
     2    -13.6058260     23  2.200                                                                 
     0    -11.7309493     23  2.300                                                                 
     0     -7.4578696     23  2.300                                                                 
     1     -3.8952261     23  2.300                                                                 
     1      6.1178114     23  2.300                                                                 
     3     -1.3605826     23  2.300                                                                 
  local pseudopotential read in
  partial core-charges read in
  partial kinetic energy density read in
  atomic valenz-charges read in
  non local Contribution for L=           2  read in
    real space projection operators read in
  non local Contribution for L=           2  read in
    real space projection operators read in
  non local Contribution for L=           0  read in
    real space projection operators read in
  non local Contribution for L=           0  read in
    real space projection operators read in
  non local Contribution for L=           1  read in
    real space projection operators read in
  non local Contribution for L=           1  read in
    real space projection operators read in
    PAW grid and wavefunctions read in

   number of l-projection  operators is LMAX  =           6
   number of lm-projection operators is LMMAX =          18

  PAW_PBE Ge_d 03Jul2007                :
 energy of atom  1       EATOM=-2596.2402
 kinetic energy error for atom=    0.0077 (will be added to EATOM!!)


 POSCAR: Primitive Cell
  positions in direct lattice
  No initial velocities read in
 exchange correlation table for  LEXCH =        8
   RHO(1)=    0.500       N(1)  =     2000
   RHO(2)=  100.500       N(2)  =     4000



--------------------------------------------------------------------------------------------------------


 ion  position               nearest neighbor table
   1  0.500  0.500  0.500-   2 2.45   2 2.45   2 2.45   2 2.45
   2  0.750  0.750  0.750-   1 2.45   1 2.45   1 2.45   1 2.45

  LATTYP: Found a face centered cubic cell.
 ALAT       =     5.6575400000
  
  Lattice vectors:
  
 A1 = (   0.0000000000,   2.8287700000,   2.8287700000)
 A2 = (   2.8287700000,   0.0000000000,   2.8287700000)
 A3 = (   2.8287700000,   2.8287700000,   0.0000000000)


Analysis of symmetry for initial positions (statically):
=====================================================================
 Subroutine PRICEL returns:
 Original cell was already a primitive cell.
 

 Routine SETGRP: Setting up the symmetry group for a 
 face centered cubic supercell.


 Subroutine GETGRP returns: Found 48 space group operations
 (whereof 24 operations were pure point group operations)
 out of a pool of 48 trial point group operations.


The static configuration has the point symmetry T_d .
 The point group associated with its full space group is O_h .


Analysis of symmetry for dynamics (positions and initial velocities):
=====================================================================
 Subroutine PRICEL returns:
 Original cell was already a primitive cell.
 

 Routine SETGRP: Setting up the symmetry group for a 
 face centered cubic supercell.


 Subroutine GETGRP returns: Found 48 space group operations
 (whereof 24 operations were pure point group operations)
 out of a pool of 48 trial point group operations.


The dynamic configuration has the point symmetry T_d .
 The point group associated with its full space group is O_h .


 Subroutine INISYM returns: Found 48 space group operations
 (whereof 24 operations are pure point group operations),
 and found     1 'primitive' translations


----------------------------------------------------------------------------------------

                                     Primitive cell                                     

  volume of cell :      45.2713

  direct lattice vectors                    reciprocal lattice vectors
     0.000000000  2.828770000  2.828770000    -0.176755268  0.176755268  0.176755268
     2.828770000  0.000000000  2.828770000     0.176755268 -0.176755268  0.176755268
     2.828770000  2.828770000  0.000000000     0.176755268  0.176755268 -0.176755268

  length of vectors
     4.000484899  4.000484899  4.000484899     0.306149105  0.306149105  0.306149105

  position of ions in fractional coordinates (direct lattice)
     0.500000000  0.500000000  0.500000000
     0.750000000  0.750000000  0.750000000

  ion indices of the primitive-cell ions
   primitive index   ion index
                 1           1
                 2           2

----------------------------------------------------------------------------------------



 KPOINTS: K-Path Generated by VASPKIT.            

Interpolating k-points between supplied coordinates.

 Line segments in fractional coordinates (reciprocal lattice):
    0.000000  0.000000  0.000000  ...  0.500000  0.000000  0.500000
    0.500000  0.000000  0.500000  ...  0.625000  0.250000  0.625000
    0.375000  0.375000  0.750000  ...  0.000000  0.000000  0.000000
    0.000000  0.000000  0.000000  ...  0.500000  0.500000  0.500000
    0.500000  0.500000  0.500000  ...  0.500000  0.250000  0.750000
    0.500000  0.250000  0.750000  ...  0.500000  0.000000  0.500000

 Generated    20 points on each line segment, for a total of    120 k-points:

 Following reciprocal coordinates:
            Coordinates               Weight
  0.000000  0.000000  0.000000      0.008333
  0.026316  0.000000  0.026316      0.008333
  0.052632  0.000000  0.052632      0.008333
  0.078947  0.000000  0.078947      0.008333
  0.105263  0.000000  0.105263      0.008333
  0.131579  0.000000  0.131579      0.008333
  0.157895  0.000000  0.157895      0.008333
  0.184211  0.000000  0.184211      0.008333
  0.210526  0.000000  0.210526      0.008333
  0.236842  0.000000  0.236842      0.008333
  0.263158  0.000000  0.263158      0.008333
  0.289474  0.000000  0.289474      0.008333
  0.315789  0.000000  0.315789      0.008333
  0.342105  0.000000  0.342105      0.008333
  0.368421  0.000000  0.368421      0.008333
  0.394737  0.000000  0.394737      0.008333
  0.421053  0.000000  0.421053      0.008333
  0.447368  0.000000  0.447368      0.008333
  0.473684  0.000000  0.473684      0.008333
  0.500000  0.000000  0.500000      0.008333
  0.500000  0.000000  0.500000      0.008333
  0.506579  0.013158  0.506579      0.008333
  0.513158  0.026316  0.513158      0.008333
  0.519737  0.039474  0.519737      0.008333
  0.526316  0.052632  0.526316      0.008333
  0.532895  0.065789  0.532895      0.008333
  0.539474  0.078947  0.539474      0.008333
  0.546053  0.092105  0.546053      0.008333
  0.552632  0.105263  0.552632      0.008333
  0.559211  0.118421  0.559211      0.008333
  0.565789  0.131579  0.565789      0.008333
  0.572368  0.144737  0.572368      0.008333
  0.578947  0.157895  0.578947      0.008333
  0.585526  0.171053  0.585526      0.008333
  0.592105  0.184211  0.592105      0.008333
  0.598684  0.197368  0.598684      0.008333
  0.605263  0.210526  0.605263      0.008333
  0.611842  0.223684  0.611842      0.008333
  0.618421  0.236842  0.618421      0.008333
  0.625000  0.250000  0.625000      0.008333
  0.375000  0.375000  0.750000      0.008333
  0.355263  0.355263  0.710526      0.008333
  0.335526  0.335526  0.671053      0.008333
  0.315789  0.315789  0.631579      0.008333
  0.296053  0.296053  0.592105      0.008333
  0.276316  0.276316  0.552632      0.008333
  0.256579  0.256579  0.513158      0.008333
  0.236842  0.236842  0.473684      0.008333
  0.217105  0.217105  0.434211      0.008333
  0.197368  0.197368  0.394737      0.008333
  0.177632  0.177632  0.355263      0.008333
  0.157895  0.157895  0.315789      0.008333
  0.138158  0.138158  0.276316      0.008333
  0.118421  0.118421  0.236842      0.008333
  0.098684  0.098684  0.197368      0.008333
  0.078947  0.078947  0.157895      0.008333
  0.059211  0.059211  0.118421      0.008333
  0.039474  0.039474  0.078947      0.008333
  0.019737  0.019737  0.039474      0.008333
  0.000000  0.000000  0.000000      0.008333
  0.000000  0.000000  0.000000      0.008333
  0.026316  0.026316  0.026316      0.008333
  0.052632  0.052632  0.052632      0.008333
  0.078947  0.078947  0.078947      0.008333
  0.105263  0.105263  0.105263      0.008333
  0.131579  0.131579  0.131579      0.008333
  0.157895  0.157895  0.157895      0.008333
  0.184211  0.184211  0.184211      0.008333
  0.210526  0.210526  0.210526      0.008333
  0.236842  0.236842  0.236842      0.008333
  0.263158  0.263158  0.263158      0.008333
  0.289474  0.289474  0.289474      0.008333
  0.315789  0.315789  0.315789      0.008333
  0.342105  0.342105  0.342105      0.008333
  0.368421  0.368421  0.368421      0.008333
  0.394737  0.394737  0.394737      0.008333
  0.421053  0.421053  0.421053      0.008333
  0.447368  0.447368  0.447368      0.008333
  0.473684  0.473684  0.473684      0.008333
  0.500000  0.500000  0.500000      0.008333
  0.500000  0.500000  0.500000      0.008333
  0.500000  0.486842  0.513158      0.008333
  0.500000  0.473684  0.526316      0.008333
  0.500000  0.460526  0.539474      0.008333
  0.500000  0.447368  0.552632      0.008333
  0.500000  0.434211  0.565789      0.008333
  0.500000  0.421053  0.578947      0.008333
  0.500000  0.407895  0.592105      0.008333
  0.500000  0.394737  0.605263      0.008333
  0.500000  0.381579  0.618421      0.008333
  0.500000  0.368421  0.631579      0.008333
  0.500000  0.355263  0.644737      0.008333
  0.500000  0.342105  0.657895      0.008333
  0.500000  0.328947  0.671053      0.008333
  0.500000  0.315789  0.684211      0.008333
  0.500000  0.302632  0.697368      0.008333
  0.500000  0.289474  0.710526      0.008333
  0.500000  0.276316  0.723684      0.008333
  0.500000  0.263158  0.736842      0.008333
  0.500000  0.250000  0.750000      0.008333
  0.500000  0.250000  0.750000      0.008333
  0.500000  0.236842  0.736842      0.008333
  0.500000  0.223684  0.723684      0.008333
  0.500000  0.210526  0.710526      0.008333
  0.500000  0.197368  0.697368      0.008333
  0.500000  0.184211  0.684211      0.008333
  0.500000  0.171053  0.671053      0.008333
  0.500000  0.157895  0.657895      0.008333
  0.500000  0.144737  0.644737      0.008333
  0.500000  0.131579  0.631579      0.008333
  0.500000  0.118421  0.618421      0.008333
  0.500000  0.105263  0.605263      0.008333
  0.500000  0.092105  0.592105      0.008333
  0.500000  0.078947  0.578947      0.008333
  0.500000  0.065789  0.565789      0.008333
  0.500000  0.052632  0.552632      0.008333
  0.500000  0.039474  0.539474      0.008333
  0.500000  0.026316  0.526316      0.008333
  0.500000  0.013158  0.513158      0.008333
  0.500000  0.000000  0.500000      0.008333

 Following cartesian coordinates:
            Coordinates               Weight
  0.000000  0.000000  0.000000      0.008333
  0.000000  0.009303 -0.000000      0.008333
  0.000000  0.018606 -0.000000      0.008333
  0.000000  0.027909 -0.000000      0.008333
  0.000000  0.037212 -0.000000      0.008333
  0.000000  0.046515 -0.000000      0.008333
  0.000000  0.055817 -0.000000      0.008333
  0.000000  0.065120 -0.000000      0.008333
  0.000000  0.074423 -0.000000      0.008333
 -0.000000  0.083726  0.000000      0.008333
  0.000000  0.093029 -0.000000      0.008333
 -0.000000  0.102332  0.000000      0.008333
  0.000000  0.111635 -0.000000      0.008333
 -0.000000  0.120938  0.000000      0.008333
  0.000000  0.130241 -0.000000      0.008333
  0.000000  0.139544 -0.000000      0.008333
  0.000000  0.148847 -0.000000      0.008333
 -0.000000  0.158149  0.000000      0.008333
 -0.000000  0.167452  0.000000      0.008333
  0.000000  0.176755  0.000000      0.008333
  0.000000  0.176755  0.000000      0.008333
  0.002326  0.176755  0.002326      0.008333
  0.004651  0.176755  0.004651      0.008333
  0.006977  0.176755  0.006977      0.008333
  0.009303  0.176755  0.009303      0.008333
  0.011629  0.176755  0.011629      0.008333
  0.013954  0.176755  0.013954      0.008333
  0.016280  0.176755  0.016280      0.008333
  0.018606  0.176755  0.018606      0.008333
  0.020932  0.176755  0.020932      0.008333
  0.023257  0.176755  0.023257      0.008333
  0.025583  0.176755  0.025583      0.008333
  0.027909  0.176755  0.027909      0.008333
  0.030234  0.176755  0.030234      0.008333
  0.032560  0.176755  0.032560      0.008333
  0.034886  0.176755  0.034886      0.008333
  0.037212  0.176755  0.037212      0.008333
  0.039537  0.176755  0.039537      0.008333
  0.041863  0.176755  0.041863      0.008333
  0.044189  0.176755  0.044189      0.008333
  0.132566  0.132566 -0.000000      0.008333
  0.125589  0.125589  0.000000      0.008333
  0.118612  0.118612 -0.000000      0.008333
  0.111635  0.111635 -0.000000      0.008333
  0.104658  0.104658  0.000000      0.008333
  0.097681  0.097681 -0.000000      0.008333
  0.090703  0.090703  0.000000      0.008333
  0.083726  0.083726  0.000000      0.008333
  0.076749  0.076749 -0.000000      0.008333
  0.069772  0.069772 -0.000000      0.008333
  0.062795  0.062795  0.000000      0.008333
  0.055817  0.055817  0.000000      0.008333
  0.048840  0.048840 -0.000000      0.008333
  0.041863  0.041863  0.000000      0.008333
  0.034886  0.034886  0.000000      0.008333
  0.027909  0.027909 -0.000000      0.008333
  0.020932  0.020932 -0.000000      0.008333
  0.013954  0.013954 -0.000000      0.008333
  0.006977  0.006977  0.000000      0.008333
  0.000000  0.000000 -0.000000      0.008333
  0.000000  0.000000  0.000000      0.008333
  0.004651  0.004651  0.004651      0.008333
  0.009303  0.009303  0.009303      0.008333
  0.013954  0.013954  0.013954      0.008333
  0.018606  0.018606  0.018606      0.008333
  0.023257  0.023257  0.023257      0.008333
  0.027909  0.027909  0.027909      0.008333
  0.032560  0.032560  0.032560      0.008333
  0.037212  0.037212  0.037212      0.008333
  0.041863  0.041863  0.041863      0.008333
  0.046515  0.046515  0.046515      0.008333
  0.051166  0.051166  0.051166      0.008333
  0.055817  0.055817  0.055817      0.008333
  0.060469  0.060469  0.060469      0.008333
  0.065120  0.065120  0.065120      0.008333
  0.069772  0.069772  0.069772      0.008333
  0.074423  0.074423  0.074423      0.008333
  0.079075  0.079075  0.079075      0.008333
  0.083726  0.083726  0.083726      0.008333
  0.088378  0.088378  0.088378      0.008333
  0.088378  0.088378  0.088378      0.008333
  0.088378  0.093029  0.083726      0.008333
  0.088378  0.097681  0.079075      0.008333
  0.088378  0.102332  0.074423      0.008333
  0.088378  0.106983  0.069772      0.008333
  0.088378  0.111635  0.065120      0.008333
  0.088378  0.116286  0.060469      0.008333
  0.088378  0.120938  0.055817      0.008333
  0.088378  0.125589  0.051166      0.008333
  0.088378  0.130241  0.046515      0.008333
  0.088378  0.134892  0.041863      0.008333
  0.088378  0.139544  0.037212      0.008333
  0.088378  0.144195  0.032560      0.008333
  0.088378  0.148847  0.027909      0.008333
  0.088378  0.153498  0.023257      0.008333
  0.088378  0.158149  0.018606      0.008333
  0.088378  0.162801  0.013954      0.008333
  0.088378  0.167452  0.009303      0.008333
  0.088378  0.172104  0.004651      0.008333
  0.088378  0.176755 -0.000000      0.008333
  0.088378  0.176755 -0.000000      0.008333
  0.083726  0.176755 -0.000000      0.008333
  0.079075  0.176755 -0.000000      0.008333
  0.074423  0.176755  0.000000      0.008333
  0.069772  0.176755 -0.000000      0.008333
  0.065120  0.176755 -0.000000      0.008333
  0.060469  0.176755  0.000000      0.008333
  0.055817  0.176755 -0.000000      0.008333
  0.051166  0.176755 -0.000000      0.008333
  0.046515  0.176755  0.000000      0.008333
  0.041863  0.176755 -0.000000      0.008333
  0.037212  0.176755  0.000000      0.008333
  0.032560  0.176755  0.000000      0.008333
  0.027909  0.176755 -0.000000      0.008333
  0.023257  0.176755  0.000000      0.008333
  0.018606  0.176755 -0.000000      0.008333
  0.013954  0.176755 -0.000000      0.008333
  0.009303  0.176755  0.000000      0.008333
  0.004651  0.176755  0.000000      0.008333
  0.000000  0.176755  0.000000      0.008333



--------------------------------------------------------------------------------------------------------




 Dimension of arrays:
   k-points           NKPTS =    120   k-points in BZ     NKDIM =    120   number of bands    NBANDS=     18
   number of dos      NEDOS =    301   number of ions     NIONS =      2
   non local maximal  LDIM  =      6   non local SUM 2l+1 LMDIM =     18
   total plane-waves  NPLWV =  21952
   max r-space proj   IRMAX =      1   max aug-charges    IRDMAX= 130646
   dimension x,y,z NGX =    28 NGY =   28 NGZ =   28
   dimension x,y,z NGXF=    56 NGYF=   56 NGZF=   56
   support grid    NGXF=   112 NGYF=  112 NGZF=  112
   ions per type =               2
   NGX,Y,Z   is equivalent  to a cutoff of  11.64, 11.64, 11.64 a.u.
   NGXF,Y,Z  is equivalent  to a cutoff of  23.27, 23.27, 23.27 a.u.

 SYSTEM =  unknown system                          
 POSCAR =  Primitive Cell                          

 Startparameter for this run:
   NWRITE =      2    write-flag & timer
   PREC   = accura    normal or accurate (medium, high low for compatibility)
   ISTART =      1    job   : 0-new  1-cont  2-samecut
   ICHARG =      0    charge: 1-file 2-atom 10-const
   ISPIN  =      1    spin polarized calculation?
   LNONCOLLINEAR =      F non collinear calculations
   LSORBIT =      F    spin-orbit coupling
   INIWAV =      1    electr: 0-lowe 1-rand  2-diag
   LASPH  =      F    aspherical Exc in radial PAW
 Electronic Relaxation 1
   ENCUT  =  450.0 eV  33.07 Ry    5.75 a.u.   6.92  6.92  6.92*2*pi/ulx,y,z
   ENINI  =  450.0     initial cutoff
   ENAUG  =  531.4 eV  augmentation charge cutoff
   NELM   =     60;   NELMIN=  2; NELMDL=  0     # of ELM steps 
   EDIFF  = 0.1E-05   stopping-criterion for ELM
   LREAL  =      F    real-space projection
   NLSPLINE    = F    spline interpolate recip. space projectors
   LCOMPAT=      F    compatible to vasp.4.4
   GGA_COMPAT  = T    GGA compatible to vasp.4.4-vasp.4.6
   LMAXPAW     = -100 max onsite density
   LMAXMIX     =    2 max onsite mixed and CHGCAR
   VOSKOWN=      0    Vosko Wilk Nusair interpolation
   ROPT   =    0.00000
 Ionic relaxation
   EDIFFG = 0.1E-04   stopping-criterion for IOM
   NSW    =      0    number of steps for IOM
   NBLOCK =      1;   KBLOCK =      1    inner block; outer block 
   IBRION =     -1    ionic relax: 0-MD 1-quasi-New 2-CG
   NFREE  =      0    steps in history (QN), initial steepest desc. (CG)
   ISIF   =      2    stress and relaxation
   IWAVPR =     10    prediction:  0-non 1-charg 2-wave 3-comb
   ISYM   =      2    0-nonsym 1-usesym 2-fastsym
   LCORR  =      T    Harris-Foulkes like correction to forces

   POTIM  = 0.5000    time-step for ionic-motion
   TEIN   =    0.0    initial temperature
   TEBEG  =    0.0;   TEEND  =   0.0 temperature during run
   SMASS  =  -3.00    Nose mass-parameter (am)
   estimated Nose-frequenzy (Omega)   =  0.10E-29 period in steps = 0.13E+47 mass=  -0.366E-27a.u.
   SCALEE = 1.0000    scale energy and forces
   NPACO  =    256;   APACO  = 10.0  distance and # of slots for P.C.
   PSTRESS=    0.0 pullay stress

  Mass of Ions in am
   POMASS =  72.61
  Ionic Valenz
   ZVAL   =  14.00
  Atomic Wigner-Seitz radii
   RWIGS  =  -1.00
  virtual crystal weights 
   VCA    =   1.00
   NELECT =      28.0000    total number of electrons
   NUPDOWN=      -1.0000    fix difference up-down

 DOS related values:
   EMIN   =  10.00;   EMAX   =-10.00  energy-range for DOS
   EFERMI =   0.00
   ISMEAR =     0;   SIGMA  =   0.05  broadening in eV -4-tet -1-fermi 0-gaus

 Electronic relaxation 2 (details)
   IALGO  =     38    algorithm
   LDIAG  =      T    sub-space diagonalisation (order eigenvalues)
   LSUBROT=      F    optimize rotation matrix (better conditioning)
   TURBO    =      0    0=normal 1=particle mesh
   IRESTART =      0    0=no restart 2=restart with 2 vectors
   NREBOOT  =      0    no. of reboots
   NMIN     =      0    reboot dimension
   EREF     =   0.00    reference energy to select bands
   IMIX   =      4    mixing-type and parameters
     AMIX     =   0.40;   BMIX     =  1.00
     AMIX_MAG =   1.60;   BMIX_MAG =  1.00
     AMIN     =   0.10
     WC   =   100.;   INIMIX=   1;  MIXPRE=   1;  MAXMIX= -45

 Intra band minimization:
   WEIMIN = 0.0000     energy-eigenvalue tresh-hold
   EBREAK =  0.14E-07  absolut break condition
   DEPER  =   0.30     relativ break condition  

   TIME   =   0.40     timestep for ELM

  volume/ion in A,a.u.               =      22.64       152.75
  Fermi-wavevector in a.u.,A,eV,Ry     =   1.394825  2.635838 26.470653  1.945538
  Thomas-Fermi vector in A             =   2.518337

 Write flags
   LWAVE        =      T    write WAVECAR
   LDOWNSAMPLE  =      F    k-point downsampling of WAVECAR
   LCHARG       =      T    write CHGCAR
   LVTOT        =      F    write LOCPOT, total local potential
   LVHAR        =      F    write LOCPOT, Hartree potential only
   LELF         =      F    write electronic localiz. function (ELF)
   LORBIT       =      0    0 simple, 1 ext, 2 COOP (PROOUT), +10 PAW based schemes


 Dipole corrections
   LMONO  =      F    monopole corrections only (constant potential shift)
   LDIPOL =      F    correct potential (dipole corrections)
   IDIPOL =      0    1-x, 2-y, 3-z, 4-all directions 
   EPSILON=  1.0000000 bulk dielectric constant

 Exchange correlation treatment:
   GGA     =    --    GGA type
   LEXCH   =     8    internal setting for exchange type
   LIBXC   =     F    Libxc                    
   VOSKOWN =     0    Vosko Wilk Nusair interpolation
   LHFCALC =     F    Hartree Fock is set to
   LHFONE  =     F    Hartree Fock one center treatment
   AEXX    =    0.0000 exact exchange contribution

 Linear response parameters
   LEPSILON=     F    determine dielectric tensor
   LRPA    =     F    only Hartree local field effects (RPA)
   LNABLA  =     F    use nabla operator in PAW spheres
   LVEL    =     F    velocity operator in full k-point grid
   CSHIFT  =0.1000    complex shift for real part using Kramers Kronig
   OMEGAMAX=  -1.0    maximum frequency
   DEG_THRESHOLD= 0.2000000E-02 threshold for treating states as degnerate
   RTIME   =   -0.100 relaxation time in fs
  (WPLASMAI=    0.000 imaginary part of plasma frequency in eV, 0.658/RTIME)
   DFIELD  = 0.0000000 0.0000000 0.0000000 field for delta impulse in time

  Optional k-point grid parameters
   LKPOINTS_OPT  =     F    use optional k-point grid
   KPOINTS_OPT_MODE=     1    mode for optional k-point grid

 Orbital magnetization related:
   ORBITALMAG=     F  switch on orbital magnetization
   LCHIMAG   =     F  perturbation theory with respect to B field
   DQ        =  0.001000  dq finite difference perturbation B field
   LLRAUG    =     F  two centre corrections for induced B field



--------------------------------------------------------------------------------------------------------


 Static calculation
 charge density and potential will be updated during run
 non-spin polarized calculation
 Variant of blocked Davidson
 Davidson routine will perform the subspace rotation
 perform sub-space diagonalisation
    after iterative eigenvector-optimisation
 modified Broyden-mixing scheme, WC =      100.0
 initial mixing is a Kerker type mixing with AMIX =  0.4000 and BMIX =      1.0000
 Hartree-type preconditioning will be used
 using additional bands            4
 reciprocal scheme for non local part
 use partial core corrections
 calculate Harris-corrections to forces   (improved forces if not selfconsistent)
 use gradient corrections 
 use of overlap-Matrix (Vanderbilt PP)
 Gauss-broadening in eV      SIGMA  =   0.05


--------------------------------------------------------------------------------------------------------


  energy-cutoff  :      450.00
  volume of cell :       45.27
      direct lattice vectors                 reciprocal lattice vectors
     0.000000000  2.828770000  2.828770000    -0.176755268  0.176755268  0.176755268
     2.828770000  0.000000000  2.828770000     0.176755268 -0.176755268  0.176755268
     2.828770000  2.828770000  0.000000000     0.176755268  0.176755268 -0.176755268

  length of vectors
     4.000484899  4.000484899  4.000484899     0.306149105  0.306149105  0.306149105



 old parameters found on file WAVECAR:
  energy-cutoff  :      450.00
  volume of cell :       45.27
      direct lattice vectors                 reciprocal lattice vectors
     0.000000000  2.828770000  2.828770000    -0.176755268  0.176755268  0.176755268
     2.828770000  0.000000000  2.828770000     0.176755268 -0.176755268  0.176755268
     2.828770000  2.828770000  0.000000000     0.176755268  0.176755268 -0.176755268

  length of vectors


 k-points in units of 2pi/SCALE and weight: K-Path Generated by VASPKIT.            
   0.00000000  0.00000000  0.00000000       0.008
   0.00000000  0.00930291 -0.00000000       0.008
   0.00000000  0.01860582 -0.00000000       0.008
   0.00000000  0.02790873 -0.00000000       0.008
   0.00000000  0.03721164 -0.00000000       0.008
   0.00000000  0.04651454 -0.00000000       0.008
   0.00000000  0.05581745 -0.00000000       0.008
   0.00000000  0.06512036 -0.00000000       0.008
   0.00000000  0.07442327 -0.00000000       0.008
  -0.00000000  0.08372618  0.00000000       0.008
   0.00000000  0.09302909 -0.00000000       0.008
  -0.00000000  0.10233200  0.00000000       0.008
   0.00000000  0.11163491 -0.00000000       0.008
  -0.00000000  0.12093782  0.00000000       0.008
   0.00000000  0.13024072 -0.00000000       0.008
   0.00000000  0.13954363 -0.00000000       0.008
   0.00000000  0.14884654 -0.00000000       0.008
  -0.00000000  0.15814945  0.00000000       0.008
  -0.00000000  0.16745236  0.00000000       0.008
   0.00000000  0.17675527  0.00000000       0.008
   0.00000000  0.17675527  0.00000000       0.008
   0.00232573  0.17675527  0.00232573       0.008
   0.00465145  0.17675527  0.00465145       0.008
   0.00697718  0.17675527  0.00697718       0.008
   0.00930291  0.17675527  0.00930291       0.008
   0.01162864  0.17675527  0.01162864       0.008
   0.01395436  0.17675527  0.01395436       0.008
   0.01628009  0.17675527  0.01628009       0.008
   0.01860582  0.17675527  0.01860582       0.008
   0.02093154  0.17675527  0.02093154       0.008
   0.02325727  0.17675527  0.02325727       0.008
   0.02558300  0.17675527  0.02558300       0.008
   0.02790873  0.17675527  0.02790873       0.008
   0.03023445  0.17675527  0.03023445       0.008
   0.03256018  0.17675527  0.03256018       0.008
   0.03488591  0.17675527  0.03488591       0.008
   0.03721164  0.17675527  0.03721164       0.008
   0.03953736  0.17675527  0.03953736       0.008
   0.04186309  0.17675527  0.04186309       0.008
   0.04418882  0.17675527  0.04418882       0.008
   0.13256645  0.13256645 -0.00000000       0.008
   0.12558927  0.12558927  0.00000000       0.008
   0.11861209  0.11861209 -0.00000000       0.008
   0.11163491  0.11163491 -0.00000000       0.008
   0.10465772  0.10465772  0.00000000       0.008
   0.09768054  0.09768054 -0.00000000       0.008
   0.09070336  0.09070336  0.00000000       0.008
   0.08372618  0.08372618  0.00000000       0.008
   0.07674900  0.07674900 -0.00000000       0.008
   0.06977182  0.06977182 -0.00000000       0.008
   0.06279463  0.06279463  0.00000000       0.008
   0.05581745  0.05581745  0.00000000       0.008
   0.04884027  0.04884027 -0.00000000       0.008
   0.04186309  0.04186309  0.00000000       0.008
   0.03488591  0.03488591  0.00000000       0.008
   0.02790873  0.02790873 -0.00000000       0.008
   0.02093154  0.02093154 -0.00000000       0.008
   0.01395436  0.01395436 -0.00000000       0.008
   0.00697718  0.00697718  0.00000000       0.008
   0.00000000  0.00000000 -0.00000000       0.008
   0.00000000  0.00000000  0.00000000       0.008
   0.00465145  0.00465145  0.00465145       0.008
   0.00930291  0.00930291  0.00930291       0.008
   0.01395436  0.01395436  0.01395436       0.008
   0.01860582  0.01860582  0.01860582       0.008
   0.02325727  0.02325727  0.02325727       0.008
   0.02790873  0.02790873  0.02790873       0.008
   0.03256018  0.03256018  0.03256018       0.008
   0.03721164  0.03721164  0.03721164       0.008
   0.04186309  0.04186309  0.04186309       0.008
   0.04651454  0.04651454  0.04651454       0.008
   0.05116600  0.05116600  0.05116600       0.008
   0.05581745  0.05581745  0.05581745       0.008
   0.06046891  0.06046891  0.06046891       0.008
   0.06512036  0.06512036  0.06512036       0.008
   0.06977182  0.06977182  0.06977182       0.008
   0.07442327  0.07442327  0.07442327       0.008
   0.07907473  0.07907473  0.07907473       0.008
   0.08372618  0.08372618  0.08372618       0.008
   0.08837763  0.08837763  0.08837763       0.008
   0.08837763  0.08837763  0.08837763       0.008
   0.08837763  0.09302909  0.08372618       0.008
   0.08837763  0.09768054  0.07907473       0.008
   0.08837763  0.10233200  0.07442327       0.008
   0.08837763  0.10698345  0.06977182       0.008
   0.08837763  0.11163491  0.06512036       0.008
   0.08837763  0.11628636  0.06046891       0.008
   0.08837763  0.12093782  0.05581745       0.008
   0.08837763  0.12558927  0.05116600       0.008
   0.08837763  0.13024072  0.04651454       0.008
   0.08837763  0.13489218  0.04186309       0.008
   0.08837763  0.13954363  0.03721164       0.008
   0.08837763  0.14419509  0.03256018       0.008
   0.08837763  0.14884654  0.02790873       0.008
   0.08837763  0.15349800  0.02325727       0.008
   0.08837763  0.15814945  0.01860582       0.008
   0.08837763  0.16280090  0.01395436       0.008
   0.08837763  0.16745236  0.00930291       0.008
   0.08837763  0.17210381  0.00465145       0.008
   0.08837763  0.17675527 -0.00000000       0.008
   0.08837763  0.17675527 -0.00000000       0.008
   0.08372618  0.17675527 -0.00000000       0.008
   0.07907473  0.17675527 -0.00000000       0.008
   0.07442327  0.17675527  0.00000000       0.008
   0.06977182  0.17675527 -0.00000000       0.008
   0.06512036  0.17675527  0.00000000       0.008
   0.06046891  0.17675527  0.00000000       0.008
   0.05581745  0.17675527 -0.00000000       0.008
   0.05116600  0.17675527 -0.00000000       0.008
   0.04651454  0.17675527  0.00000000       0.008
   0.04186309  0.17675527  0.00000000       0.008
   0.03721164  0.17675527  0.00000000       0.008
   0.03256018  0.17675527  0.00000000       0.008
   0.02790873  0.17675527 -0.00000000       0.008
   0.02325727  0.17675527  0.00000000       0.008
   0.01860582  0.17675527 -0.00000000       0.008
   0.01395436  0.17675527 -0.00000000       0.008
   0.00930291  0.17675527  0.00000000       0.008
   0.00465145  0.17675527  0.00000000       0.008
   0.00000000  0.17675527  0.00000000       0.008

 k-points in reciprocal lattice and weights: K-Path Generated by VASPKIT.            
   0.00000000  0.00000000  0.00000000       0.008
   0.02631579  0.00000000  0.02631579       0.008
   0.05263158  0.00000000  0.05263158       0.008
   0.07894737  0.00000000  0.07894737       0.008
   0.10526316  0.00000000  0.10526316       0.008
   0.13157895  0.00000000  0.13157895       0.008
   0.15789474  0.00000000  0.15789474       0.008
   0.18421053  0.00000000  0.18421053       0.008
   0.21052632  0.00000000  0.21052632       0.008
   0.23684211  0.00000000  0.23684211       0.008
   0.26315789  0.00000000  0.26315789       0.008
   0.28947368  0.00000000  0.28947368       0.008
   0.31578947  0.00000000  0.31578947       0.008
   0.34210526  0.00000000  0.34210526       0.008
   0.36842105  0.00000000  0.36842105       0.008
   0.39473684  0.00000000  0.39473684       0.008
   0.42105263  0.00000000  0.42105263       0.008
   0.44736842  0.00000000  0.44736842       0.008
   0.47368421  0.00000000  0.47368421       0.008
   0.50000000  0.00000000  0.50000000       0.008
   0.50000000  0.00000000  0.50000000       0.008
   0.50657895  0.01315789  0.50657895       0.008
   0.51315789  0.02631579  0.51315789       0.008
   0.51973684  0.03947368  0.51973684       0.008
   0.52631579  0.05263158  0.52631579       0.008
   0.53289474  0.06578947  0.53289474       0.008
   0.53947368  0.07894737  0.53947368       0.008
   0.54605263  0.09210526  0.54605263       0.008
   0.55263158  0.10526316  0.55263158       0.008
   0.55921053  0.11842105  0.55921053       0.008
   0.56578947  0.13157895  0.56578947       0.008
   0.57236842  0.14473684  0.57236842       0.008
   0.57894737  0.15789474  0.57894737       0.008
   0.58552632  0.17105263  0.58552632       0.008
   0.59210526  0.18421053  0.59210526       0.008
   0.59868421  0.19736842  0.59868421       0.008
   0.60526316  0.21052632  0.60526316       0.008
   0.61184211  0.22368421  0.61184211       0.008
   0.61842105  0.23684211  0.61842105       0.008
   0.62500000  0.25000000  0.62500000       0.008
   0.37500000  0.37500000  0.75000000       0.008
   0.35526316  0.35526316  0.71052632       0.008
   0.33552632  0.33552632  0.67105263       0.008
   0.31578947  0.31578947  0.63157895       0.008
   0.29605263  0.29605263  0.59210526       0.008
   0.27631579  0.27631579  0.55263158       0.008
   0.25657895  0.25657895  0.51315789       0.008
   0.23684211  0.23684211  0.47368421       0.008
   0.21710526  0.21710526  0.43421053       0.008
   0.19736842  0.19736842  0.39473684       0.008
   0.17763158  0.17763158  0.35526316       0.008
   0.15789474  0.15789474  0.31578947       0.008
   0.13815789  0.13815789  0.27631579       0.008
   0.11842105  0.11842105  0.23684211       0.008
   0.09868421  0.09868421  0.19736842       0.008
   0.07894737  0.07894737  0.15789474       0.008
   0.05921053  0.05921053  0.11842105       0.008
   0.03947368  0.03947368  0.07894737       0.008
   0.01973684  0.01973684  0.03947368       0.008
   0.00000000  0.00000000  0.00000000       0.008
   0.00000000  0.00000000  0.00000000       0.008
   0.02631579  0.02631579  0.02631579       0.008
   0.05263158  0.05263158  0.05263158       0.008
   0.07894737  0.07894737  0.07894737       0.008
   0.10526316  0.10526316  0.10526316       0.008
   0.13157895  0.13157895  0.13157895       0.008
   0.15789474  0.15789474  0.15789474       0.008
   0.18421053  0.18421053  0.18421053       0.008
   0.21052632  0.21052632  0.21052632       0.008
   0.23684211  0.23684211  0.23684211       0.008
   0.26315789  0.26315789  0.26315789       0.008
   0.28947368  0.28947368  0.28947368       0.008
   0.31578947  0.31578947  0.31578947       0.008
   0.34210526  0.34210526  0.34210526       0.008
   0.36842105  0.36842105  0.36842105       0.008
   0.39473684  0.39473684  0.39473684       0.008
   0.42105263  0.42105263  0.42105263       0.008
   0.44736842  0.44736842  0.44736842       0.008
   0.47368421  0.47368421  0.47368421       0.008
   0.50000000  0.50000000  0.50000000       0.008
   0.50000000  0.50000000  0.50000000       0.008
   0.50000000  0.48684211  0.51315789       0.008
   0.50000000  0.47368421  0.52631579       0.008
   0.50000000  0.46052632  0.53947368       0.008
   0.50000000  0.44736842  0.55263158       0.008
   0.50000000  0.43421053  0.56578947       0.008
   0.50000000  0.42105263  0.57894737       0.008
   0.50000000  0.40789474  0.59210526       0.008
   0.50000000  0.39473684  0.60526316       0.008
   0.50000000  0.38157895  0.61842105       0.008
   0.50000000  0.36842105  0.63157895       0.008
   0.50000000  0.35526316  0.64473684       0.008
   0.50000000  0.34210526  0.65789474       0.008
   0.50000000  0.32894737  0.67105263       0.008
   0.50000000  0.31578947  0.68421053       0.008
   0.50000000  0.30263158  0.69736842       0.008
   0.50000000  0.28947368  0.71052632       0.008
   0.50000000  0.27631579  0.72368421       0.008
   0.50000000  0.26315789  0.73684211       0.008
   0.50000000  0.25000000  0.75000000       0.008
   0.50000000  0.25000000  0.75000000       0.008
   0.50000000  0.23684211  0.73684211       0.008
   0.50000000  0.22368421  0.72368421       0.008
   0.50000000  0.21052632  0.71052632       0.008
   0.50000000  0.19736842  0.69736842       0.008
   0.50000000  0.18421053  0.68421053       0.008
   0.50000000  0.17105263  0.67105263       0.008
   0.50000000  0.15789474  0.65789474       0.008
   0.50000000  0.14473684  0.64473684       0.008
   0.50000000  0.13157895  0.63157895       0.008
   0.50000000  0.11842105  0.61842105       0.008
   0.50000000  0.10526316  0.60526316       0.008
   0.50000000  0.09210526  0.59210526       0.008
   0.50000000  0.07894737  0.57894737       0.008
   0.50000000  0.06578947  0.56578947       0.008
   0.50000000  0.05263158  0.55263158       0.008
   0.50000000  0.03947368  0.53947368       0.008
   0.50000000  0.02631579  0.52631579       0.008
   0.50000000  0.01315789  0.51315789       0.008
   0.50000000  0.00000000  0.50000000       0.008

 position of ions in fractional coordinates (direct lattice) 
   0.50000000  0.50000000  0.50000000
   0.75000000  0.75000000  0.75000000

 position of ions in cartesian coordinates  (Angst):
   2.82877000  2.82877000  2.82877000
   4.24315500  4.24315500  4.24315500



--------------------------------------------------------------------------------------------------------


 k-point   1 :   0.0000 0.0000 0.0000  plane waves:     941
 k-point   2 :   0.0263 0.0000 0.0263  plane waves:     953
 k-point   3 :   0.0526 0.0000 0.0526  plane waves:     953
 k-point   4 :   0.0789 0.0000 0.0789  plane waves:     953
 k-point   5 :   0.1053 0.0000 0.1053  plane waves:     957
 k-point   6 :   0.1316 0.0000 0.1316  plane waves:     962
 k-point   7 :   0.1579 0.0000 0.1579  plane waves:     966
 k-point   8 :   0.1842 0.0000 0.1842  plane waves:     978
 k-point   9 :   0.2105 0.0000 0.2105  plane waves:     982
 k-point  10 :   0.2368 0.0000 0.2368  plane waves:     982
 k-point  11 :   0.2632 0.0000 0.2632  plane waves:     982
 k-point  12 :   0.2895 0.0000 0.2895  plane waves:     990
 k-point  13 :   0.3158 0.0000 0.3158  plane waves:     990
 k-point  14 :   0.3421 0.0000 0.3421  plane waves:     998
 k-point  15 :   0.3684 0.0000 0.3684  plane waves:     990
 k-point  16 :   0.3947 0.0000 0.3947  plane waves:     990
 k-point  17 :   0.4211 0.0000 0.4211  plane waves:     990
 k-point  18 :   0.4474 0.0000 0.4474  plane waves:     986
 k-point  19 :   0.4737 0.0000 0.4737  plane waves:     982
 k-point  20 :   0.5000 0.0000 0.5000  plane waves:     982
 k-point  21 :   0.5000 0.0000 0.5000  plane waves:     982
 k-point  22 :   0.5066 0.0132 0.5066  plane waves:     982
 k-point  23 :   0.5132 0.0263 0.5132  plane waves:     982
 k-point  24 :   0.5197 0.0395 0.5197  plane waves:     982
 k-point  25 :   0.5263 0.0526 0.5263  plane waves:     984
 k-point  26 :   0.5329 0.0658 0.5329  plane waves:     984
 k-point  27 :   0.5395 0.0789 0.5395  plane waves:     980
 k-point  28 :   0.5461 0.0921 0.5461  plane waves:     977
 k-point  29 :   0.5526 0.1053 0.5526  plane waves:     977
 k-point  30 :   0.5592 0.1184 0.5592  plane waves:     981
 k-point  31 :   0.5658 0.1316 0.5658  plane waves:     981
 k-point  32 :   0.5724 0.1447 0.5724  plane waves:     981
 k-point  33 :   0.5789 0.1579 0.5789  plane waves:     981
 k-point  34 :   0.5855 0.1711 0.5855  plane waves:     985
 k-point  35 :   0.5921 0.1842 0.5921  plane waves:     985
 k-point  36 :   0.5987 0.1974 0.5987  plane waves:     989
 k-point  37 :   0.6053 0.2105 0.6053  plane waves:     985
 k-point  38 :   0.6118 0.2237 0.6118  plane waves:     981
 k-point  39 :   0.6184 0.2368 0.6184  plane waves:     977
 k-point  40 :   0.6250 0.2500 0.6250  plane waves:     977
 k-point  41 :   0.3750 0.3750 0.7500  plane waves:     977
 k-point  42 :   0.3553 0.3553 0.7105  plane waves:     981
 k-point  43 :   0.3355 0.3355 0.6711  plane waves:     981
 k-point  44 :   0.3158 0.3158 0.6316  plane waves:     981
 k-point  45 :   0.2961 0.2961 0.5921  plane waves:     983
 k-point  46 :   0.2763 0.2763 0.5526  plane waves:     981
 k-point  47 :   0.2566 0.2566 0.5132  plane waves:     979
 k-point  48 :   0.2368 0.2368 0.4737  plane waves:     983
 k-point  49 :   0.2171 0.2171 0.4342  plane waves:     987
 k-point  50 :   0.1974 0.1974 0.3947  plane waves:     973
 k-point  51 :   0.1776 0.1776 0.3553  plane waves:     977
 k-point  52 :   0.1579 0.1579 0.3158  plane waves:     975
 k-point  53 :   0.1382 0.1382 0.2763  plane waves:     967
 k-point  54 :   0.1184 0.1184 0.2368  plane waves:     963
 k-point  55 :   0.0987 0.0987 0.1974  plane waves:     961
 k-point  56 :   0.0789 0.0789 0.1579  plane waves:     963
 k-point  57 :   0.0592 0.0592 0.1184  plane waves:     953
 k-point  58 :   0.0395 0.0395 0.0789  plane waves:     951
 k-point  59 :   0.0197 0.0197 0.0395  plane waves:     951
 k-point  60 :   0.0000 0.0000 0.0000  plane waves:     941
 k-point  61 :   0.0000 0.0000 0.0000  plane waves:     941
 k-point  62 :   0.0263 0.0263 0.0263  plane waves:     950
 k-point  63 :   0.0526 0.0526 0.0526  plane waves:     950
 k-point  64 :   0.0789 0.0789 0.0789  plane waves:     950
 k-point  65 :   0.1053 0.1053 0.1053  plane waves:     953
 k-point  66 :   0.1316 0.1316 0.1316  plane waves:     962
 k-point  67 :   0.1579 0.1579 0.1579  plane waves:     968
 k-point  68 :   0.1842 0.1842 0.1842  plane waves:     962
 k-point  69 :   0.2105 0.2105 0.2105  plane waves:     962
 k-point  70 :   0.2368 0.2368 0.2368  plane waves:     965
 k-point  71 :   0.2632 0.2632 0.2632  plane waves:     968
 k-point  72 :   0.2895 0.2895 0.2895  plane waves:     974
 k-point  73 :   0.3158 0.3158 0.3158  plane waves:     974
 k-point  74 :   0.3421 0.3421 0.3421  plane waves:     971
 k-point  75 :   0.3684 0.3684 0.3684  plane waves:     984
 k-point  76 :   0.3947 0.3947 0.3947  plane waves:     990
 k-point  77 :   0.4211 0.4211 0.4211  plane waves:     978
 k-point  78 :   0.4474 0.4474 0.4474  plane waves:     972
 k-point  79 :   0.4737 0.4737 0.4737  plane waves:     978
 k-point  80 :   0.5000 0.5000 0.5000  plane waves:     978
 k-point  81 :   0.5000 0.5000 0.5000  plane waves:     978
 k-point  82 :   0.5000 0.4868 0.5132  plane waves:     978
 k-point  83 :   0.5000 0.4737 0.5263  plane waves:     986
 k-point  84 :   0.5000 0.4605 0.5395  plane waves:     984
 k-point  85 :   0.5000 0.4474 0.5526  plane waves:     982
 k-point  86 :   0.5000 0.4342 0.5658  plane waves:     982
 k-point  87 :   0.5000 0.4211 0.5789  plane waves:     976
 k-point  88 :   0.5000 0.4079 0.5921  plane waves:     972
 k-point  89 :   0.5000 0.3947 0.6053  plane waves:     974
 k-point  90 :   0.5000 0.3816 0.6184  plane waves:     974
 k-point  91 :   0.5000 0.3684 0.6316  plane waves:     978
 k-point  92 :   0.5000 0.3553 0.6447  plane waves:     976
 k-point  93 :   0.5000 0.3421 0.6579  plane waves:     982
 k-point  94 :   0.5000 0.3289 0.6711  plane waves:     988
 k-point  95 :   0.5000 0.3158 0.6842  plane waves:     984
 k-point  96 :   0.5000 0.3026 0.6974  plane waves:     982
 k-point  97 :   0.5000 0.2895 0.7105  plane waves:     986
 k-point  98 :   0.5000 0.2763 0.7237  plane waves:     980
 k-point  99 :   0.5000 0.2632 0.7368  plane waves:     988
 k-point 100 :   0.5000 0.2500 0.7500  plane waves:     992
 k-point 101 :   0.5000 0.2500 0.7500  plane waves:     992
 k-point 102 :   0.5000 0.2368 0.7368  plane waves:     992
 k-point 103 :   0.5000 0.2237 0.7237  plane waves:     976
 k-point 104 :   0.5000 0.2105 0.7105  plane waves:     976
 k-point 105 :   0.5000 0.1974 0.6974  plane waves:     982
 k-point 106 :   0.5000 0.1842 0.6842  plane waves:     982
 k-point 107 :   0.5000 0.1711 0.6711  plane waves:     982
 k-point 108 :   0.5000 0.1579 0.6579  plane waves:     978
 k-point 109 :   0.5000 0.1447 0.6447  plane waves:     980
 k-point 110 :   0.5000 0.1316 0.6316  plane waves:     986
 k-point 111 :   0.5000 0.1184 0.6184  plane waves:     986
 k-point 112 :   0.5000 0.1053 0.6053  plane waves:     982
 k-point 113 :   0.5000 0.0921 0.5921  plane waves:     982
 k-point 114 :   0.5000 0.0789 0.5789  plane waves:     982
 k-point 115 :   0.5000 0.0658 0.5658  plane waves:     982
 k-point 116 :   0.5000 0.0526 0.5526  plane waves:     982
 k-point 117 :   0.5000 0.0395 0.5395  plane waves:     982
 k-point 118 :   0.5000 0.0263 0.5263  plane waves:     982
 k-point 119 :   0.5000 0.0132 0.5132  plane waves:     982
 k-point 120 :   0.5000 0.0000 0.5000  plane waves:     982

 maximum and minimum number of plane-waves per node :       998      941

 maximum number of plane-waves:       998
 maximum index in each direction: 
   IXMAX=    6   IYMAX=    6   IZMAX=    6
   IXMIN=   -7   IYMIN=   -7   IZMIN=   -7


 serial   3D FFT for wavefunctions
 parallel 3D FFT for charge:
    minimum data exchange during FFTs selected (reduces bandwidth)


 total amount of memory used by VASP MPI-rank0    83507. kBytes
=======================================================================

   base      :      30000. kBytes
   nonl-proj :      17277. kBytes
   fftplans  :      13127. kBytes
   grid      :       5205. kBytes
   one-center:         31. kBytes
   wavefun   :      17867. kBytes

     INWAV:  cpu time      0.0651: real time      0.0652
 Broyden mixing: mesh for mixing (old mesh)
   NGX = 13   NGY = 13   NGZ = 13
  (NGX  = 56   NGY  = 56   NGZ  = 56)
  gives a total of   2197 points

 charge density for first step will be calculated from the start-wavefunctions


--------------------------------------------------------------------------------------------------------


 Maximum index for augmentation-charges        63191 (set IRDMAX)


--------------------------------------------------------------------------------------------------------


 initial charge from wavefunction
 First call to EWALD:  gamma=   0.497
 Maximum number of real-space cells 3x 3x 3
 Maximum number of reciprocal cells 3x 3x 3

    FEWALD:  cpu time      0.0012: real time      0.0012


--------------------------------------- Iteration      1(   1)  ---------------------------------------


    POTLOK:  cpu time      0.0417: real time      0.0423
    SETDIJ:  cpu time      0.0785: real time      0.0785
     EDDAV:  cpu time      2.9980: real time      3.0061
       DOS:  cpu time      0.0013: real time      0.0019
    CHARGE:  cpu time      0.2763: real time      0.2764
    MIXING:  cpu time      0.0008: real time      0.0008
    --------------------------------------------
      LOOP:  cpu time      3.3966: real time      3.4060

 eigenvalue-minimisations  :  4626
 total energy-change (2. order) :-0.2841598E+04  (-0.6960408E+04)
 number of electron      28.0000001 magnetization 
 augmentation part       17.2338588 magnetization 

 Broyden mixing:
  rms(total) = 0.13641E+02    rms(broyden)= 0.13640E+02
  rms(prec ) = 0.44025E+02
  weight for this iteration     100.00

 Free energy of the ion-electron system (eV)
  ---------------------------------------------------
  alpha Z        PSCENC =       129.43330490
  Ewald energy   TEWEN  =     -2687.29417191
  -Hartree energ DENC   =       -56.18230991
  -exchange      EXHF   =         0.00000000
  -V(xc)+E(xc)   XCENC  =        87.53360811
  PAW double counting   =      2333.59676857    -2340.42144203
  entropy T*S    EENTRO =        -0.00045942
  eigenvalues    EBANDS =     -5500.72823683
  atomic energy  EATOM  =      5192.46507749
  Solvation  Ediel_sol  =         0.00000000
  ---------------------------------------------------
  free energy    TOTEN  =     -2841.59786102 eV

  energy without entropy =    -2841.59740161  energy(sigma->0) =    -2841.59763131


--------------------------------------------------------------------------------------------------------




--------------------------------------- Iteration      1(   2)  ---------------------------------------


    POTLOK:  cpu time      0.0441: real time      0.0441
    SETDIJ:  cpu time      0.0745: real time      0.0745
     EDDAV:  cpu time      4.0942: real time      4.0944
       DOS:  cpu time      0.0014: real time      0.0014
    CHARGE:  cpu time      0.3008: real time      0.3008
    MIXING:  cpu time      0.0021: real time      0.0032
    --------------------------------------------
      LOOP:  cpu time      4.5171: real time      4.5184

 eigenvalue-minimisations  :  7192
 total energy-change (2. order) : 0.1566729E+04  (-0.2454223E+03)
 number of electron      28.0000001 magnetization 
 augmentation part       13.2658665 magnetization 

 Broyden mixing:
  rms(total) = 0.94146E+02    rms(broyden)= 0.94145E+02
  rms(prec ) = 0.10011E+03
  weight for this iteration     100.00

 eigenvalues of (default mixing * dielectric matrix)
  average eigenvalue GAMMA=   0.0123
  0.0123

 Free energy of the ion-electron system (eV)
  ---------------------------------------------------
  alpha Z        PSCENC =       129.43330490
  Ewald energy   TEWEN  =     -2687.29417191
  -Hartree energ DENC   =      -173.63438571
  -exchange      EXHF   =         0.00000000
  -V(xc)+E(xc)   XCENC  =        95.33090659
  PAW double counting   =      6436.31980697    -6698.80216357
  entropy T*S    EENTRO =        -0.00105279
  eigenvalues    EBANDS =     -3568.68644116
  atomic energy  EATOM  =      5192.46507749
  Solvation  Ediel_sol  =         0.00000000
  ---------------------------------------------------
  free energy    TOTEN  =     -1274.86911919 eV

  energy without entropy =    -1274.86806640  energy(sigma->0) =    -1274.86859279


--------------------------------------------------------------------------------------------------------




--------------------------------------- Iteration      1(   3)  ---------------------------------------


    POTLOK:  cpu time      0.0585: real time      0.0585
    SETDIJ:  cpu time      0.0883: real time      0.0891
     EDDAV:  cpu time      3.4345: real time      3.4353
       DOS:  cpu time      0.0014: real time      0.0014
    CHARGE:  cpu time      0.2747: real time      0.2747
    MIXING:  cpu time      0.0013: real time      0.0013
    --------------------------------------------
      LOOP:  cpu time      3.8590: real time      3.8606

 eigenvalue-minimisations  :  5698
 total energy-change (2. order) : 0.4323358E+01  (-0.2859819E+02)
 number of electron      28.0000001 magnetization 
 augmentation part       12.7271877 magnetization 

 Broyden mixing:
  rms(total) = 0.11993E+03    rms(broyden)= 0.11993E+03
  rms(prec ) = 0.12496E+03
  weight for this iteration     100.00

 eigenvalues of (default mixing * dielectric matrix)
  average eigenvalue GAMMA=   1.4086
  2.7110  0.1062

 Free energy of the ion-electron system (eV)
  ---------------------------------------------------
  alpha Z        PSCENC =       129.43330490
  Ewald energy   TEWEN  =     -2687.29417191
  -Hartree energ DENC   =      -182.63714660
  -exchange      EXHF   =         0.00000000
  -V(xc)+E(xc)   XCENC  =        95.84608216
  PAW double counting   =      8248.75682668    -8518.36375756
  entropy T*S    EENTRO =        -0.00519187
  eigenvalues    EBANDS =     -3548.74678479
  atomic energy  EATOM  =      5192.46507749
  Solvation  Ediel_sol  =         0.00000000
  ---------------------------------------------------
  free energy    TOTEN  =     -1270.54576149 eV

  energy without entropy =    -1270.54056962  energy(sigma->0) =    -1270.54316556


--------------------------------------------------------------------------------------------------------




--------------------------------------- Iteration      1(   4)  ---------------------------------------


    POTLOK:  cpu time      0.0405: real time      0.0405
    SETDIJ:  cpu time      0.0936: real time      0.0936
     EDDAV:  cpu time      3.0983: real time      3.0985
       DOS:  cpu time      0.0012: real time      0.0012
    CHARGE:  cpu time      0.2937: real time      0.2937
    MIXING:  cpu time      0.0011: real time      0.0017
    --------------------------------------------
      LOOP:  cpu time      3.5283: real time      3.5291

 eigenvalue-minimisations  :  5162
 total energy-change (2. order) : 0.3404868E+03  (-0.1332596E+04)
 number of electron      28.0000000 magnetization 
 augmentation part       -0.8694732 magnetization 

 Broyden mixing:
  rms(total) = 0.30661E+02    rms(broyden)= 0.30659E+02
  rms(prec ) = 0.51080E+02
  weight for this iteration     100.00

 eigenvalues of (default mixing * dielectric matrix)
  average eigenvalue GAMMA=   0.8012
  0.1073  1.6451  0.6512

 Free energy of the ion-electron system (eV)
  ---------------------------------------------------
  alpha Z        PSCENC =       129.43330490
  Ewald energy   TEWEN  =     -2687.29417191
  -Hartree energ DENC   =     -2397.15509474
  -exchange      EXHF   =         0.00000000
  -V(xc)+E(xc)   XCENC  =       186.81451718
  PAW double counting   =      3853.20777786    -5715.78891413
  entropy T*S    EENTRO =        -0.00096556
  eigenvalues    EBANDS =       508.25953963
  atomic energy  EATOM  =      5192.46507749
  Solvation  Ediel_sol  =         0.00000000
  ---------------------------------------------------
  free energy    TOTEN  =      -930.05892928 eV

  energy without entropy =     -930.05796371  energy(sigma->0) =     -930.05844650


--------------------------------------------------------------------------------------------------------




--------------------------------------- Iteration      1(   5)  ---------------------------------------


    POTLOK:  cpu time      0.0518: real time      0.0518
    SETDIJ:  cpu time      0.0817: real time      0.0817
     EDDAV:  cpu time      3.0167: real time      3.0169
       DOS:  cpu time      0.0013: real time      0.0013
    CHARGE:  cpu time      0.2816: real time      0.2816
    MIXING:  cpu time      0.0014: real time      0.0014
    --------------------------------------------
      LOOP:  cpu time      3.4344: real time      3.4346

 eigenvalue-minimisations  :  5034
 total energy-change (2. order) : 0.9892454E+03  (-0.7442294E+03)
 number of electron      28.0000001 magnetization 
 augmentation part       17.4331032 magnetization 

 Broyden mixing:
  rms(total) = 0.91972E+01    rms(broyden)= 0.91962E+01
  rms(prec ) = 0.11182E+02
  weight for this iteration     100.00

 eigenvalues of (default mixing * dielectric matrix)
  average eigenvalue GAMMA=   0.8178
  2.2708  0.1074  0.5638  0.3292

 Free energy of the ion-electron system (eV)
  ---------------------------------------------------
  alpha Z        PSCENC =       129.43330490
  Ewald energy   TEWEN  =     -2687.29417191
  -Hartree energ DENC   =     -1182.84695642
  -exchange      EXHF   =         0.00000000
  -V(xc)+E(xc)   XCENC  =       135.71327653
  PAW double counting   =      2169.15959759    -3160.31702748
  entropy T*S    EENTRO =        -0.00103744
  eigenvalues    EBANDS =      -537.12558270
  atomic energy  EATOM  =      5192.46507749
  Solvation  Ediel_sol  =         0.00000000
  ---------------------------------------------------
  free energy    TOTEN  =        59.18648056 eV

  energy without entropy =       59.18751800  energy(sigma->0) =       59.18699928


--------------------------------------------------------------------------------------------------------




--------------------------------------- Iteration      1(   6)  ---------------------------------------


    POTLOK:  cpu time      0.0494: real time      0.0494
    SETDIJ:  cpu time      0.0845: real time      0.0845
     EDDAV:  cpu time      3.2870: real time      3.2871
       DOS:  cpu time      0.0015: real time      0.0015
    CHARGE:  cpu time      0.2765: real time      0.2765
    MIXING:  cpu time      0.0009: real time      0.0009
    --------------------------------------------
      LOOP:  cpu time      3.6998: real time      3.7000

 eigenvalue-minimisations  :  6152
 total energy-change (2. order) :-0.1626307E+03  (-0.1883434E+03)
 number of electron      28.0000001 magnetization 
 augmentation part       11.9642602 magnetization 

 Broyden mixing:
  rms(total) = 0.11139E+02    rms(broyden)= 0.11139E+02
  rms(prec ) = 0.15719E+02
  weight for this iteration     100.00

 eigenvalues of (default mixing * dielectric matrix)
  average eigenvalue GAMMA=   0.7829
  2.4318  0.5928  0.1074  0.3926  0.3900

 Free energy of the ion-electron system (eV)
  ---------------------------------------------------
  alpha Z        PSCENC =       129.43330490
  Ewald energy   TEWEN  =     -2687.29417191
  -Hartree energ DENC   =     -1700.44117714
  -exchange      EXHF   =         0.00000000
  -V(xc)+E(xc)   XCENC  =       154.75579296
  PAW double counting   =      2469.42412533    -3774.89237312
  entropy T*S    EENTRO =        -0.00291561
  eigenvalues    EBANDS =       113.10815767
  atomic energy  EATOM  =      5192.46507749
  Solvation  Ediel_sol  =         0.00000000
  ---------------------------------------------------
  free energy    TOTEN  =      -103.44417942 eV

  energy without entropy =     -103.44126381  energy(sigma->0) =     -103.44272162


--------------------------------------------------------------------------------------------------------




--------------------------------------- Iteration      1(   7)  ---------------------------------------


    POTLOK:  cpu time      0.0516: real time      0.0516
    SETDIJ:  cpu time      0.0795: real time      0.0795
     EDDAV:  cpu time      3.7827: real time      3.7828
       DOS:  cpu time      0.0022: real time      0.0022
    CHARGE:  cpu time      0.2736: real time      0.2736
    MIXING:  cpu time      0.0011: real time      0.0011
    --------------------------------------------
      LOOP:  cpu time      4.1906: real time      4.1907

 eigenvalue-minimisations  :  6916
 total energy-change (2. order) :-0.1608077E+03  (-0.4066754E+02)
 number of electron      28.0000000 magnetization 
 augmentation part        5.4447084 magnetization 

 Broyden mixing:
  rms(total) = 0.14366E+02    rms(broyden)= 0.14366E+02
  rms(prec ) = 0.28090E+02
  weight for this iteration     100.00

 eigenvalues of (default mixing * dielectric matrix)
  average eigenvalue GAMMA=   0.9993
  3.2987  0.8022  0.8022  0.1074  0.6201  0.3651

 Free energy of the ion-electron system (eV)
  ---------------------------------------------------
  alpha Z        PSCENC =       129.43330490
  Ewald energy   TEWEN  =     -2687.29417191
  -Hartree energ DENC   =     -1825.57499282
  -exchange      EXHF   =         0.00000000
  -V(xc)+E(xc)   XCENC  =       160.31493812
  PAW double counting   =      2590.44846123    -4069.54253829
  entropy T*S    EENTRO =        -0.00891811
  eigenvalues    EBANDS =       245.50698390
  atomic energy  EATOM  =      5192.46507749
  Solvation  Ediel_sol  =         0.00000000
  ---------------------------------------------------
  free energy    TOTEN  =      -264.25185548 eV

  energy without entropy =     -264.24293737  energy(sigma->0) =     -264.24739643


--------------------------------------------------------------------------------------------------------




--------------------------------------- Iteration      1(   8)  ---------------------------------------


    POTLOK:  cpu time      0.0341: real time      0.0341
    SETDIJ:  cpu time      0.0799: real time      0.0799
     EDDAV:  cpu time      4.2010: real time      4.2012
       DOS:  cpu time      0.0019: real time      0.0019
    CHARGE:  cpu time      0.2697: real time      0.2697
    MIXING:  cpu time      0.0014: real time      0.0014
    --------------------------------------------
      LOOP:  cpu time      4.5880: real time      4.5882

 eigenvalue-minimisations  :  7686
 total energy-change (2. order) :-0.3126264E+03  (-0.6348889E+02)
 number of electron      28.0000000 magnetization 
 augmentation part        0.3464499 magnetization 

 Broyden mixing:
  rms(total) = 0.19907E+02    rms(broyden)= 0.19907E+02
  rms(prec ) = 0.45889E+02
  weight for this iteration     100.00

 eigenvalues of (default mixing * dielectric matrix)
  average eigenvalue GAMMA=   0.9179
  1.8594  1.8594  0.1074  1.1048  0.5960  0.5960  0.3023

 Free energy of the ion-electron system (eV)
  ---------------------------------------------------
  alpha Z        PSCENC =       129.43330490
  Ewald energy   TEWEN  =     -2687.29417191
  -Hartree energ DENC   =     -2350.37895601
  -exchange      EXHF   =         0.00000000
  -V(xc)+E(xc)   XCENC  =       180.85757749
  PAW double counting   =      4687.59710074    -6104.32084156
  entropy T*S    EENTRO =        -0.00162706
  eigenvalues    EBANDS =       374.76432086
  atomic energy  EATOM  =      5192.46507749
  Solvation  Ediel_sol  =         0.00000000
  ---------------------------------------------------
  free energy    TOTEN  =      -576.87821506 eV

  energy without entropy =     -576.87658799  energy(sigma->0) =     -576.87740152


--------------------------------------------------------------------------------------------------------




--------------------------------------- Iteration      1(   9)  ---------------------------------------


    POTLOK:  cpu time      0.0497: real time      0.0497
    SETDIJ:  cpu time      0.0794: real time      0.0794
     EDDAV:  cpu time      3.0728: real time      3.0730
       DOS:  cpu time      0.0015: real time      0.0015
    CHARGE:  cpu time      0.2630: real time      0.2630
    MIXING:  cpu time      0.0010: real time      0.0010
    --------------------------------------------
      LOOP:  cpu time      3.4674: real time      3.4676

 eigenvalue-minimisations  :  5340
 total energy-change (2. order) : 0.6383655E+03  (-0.6861562E+03)
 number of electron      28.0000001 magnetization 
 augmentation part       17.3705266 magnetization 

 Broyden mixing:
  rms(total) = 0.93690E+01    rms(broyden)= 0.93686E+01
  rms(prec ) = 0.10167E+02
  weight for this iteration     100.00

 eigenvalues of (default mixing * dielectric matrix)
  average eigenvalue GAMMA=   1.0515
  3.1742  2.1471  1.0098  0.1074  0.5681  0.5681  0.5329  0.3046

 Free energy of the ion-electron system (eV)
  ---------------------------------------------------
  alpha Z        PSCENC =       129.43330490
  Ewald energy   TEWEN  =     -2687.29417191
  -Hartree energ DENC   =     -1300.64216279
  -exchange      EXHF   =         0.00000000
  -V(xc)+E(xc)   XCENC  =       138.28488147
  PAW double counting   =      3807.52211837    -4551.52816749
  entropy T*S    EENTRO =        -0.00039821
  eigenvalues    EBANDS =      -666.75321694
  atomic energy  EATOM  =      5192.46507749
  Solvation  Ediel_sol  =         0.00000000
  ---------------------------------------------------
  free energy    TOTEN  =        61.48726490 eV

  energy without entropy =       61.48766311  energy(sigma->0) =       61.48746401


--------------------------------------------------------------------------------------------------------




--------------------------------------- Iteration      1(  10)  ---------------------------------------


    POTLOK:  cpu time      0.0416: real time      0.0416
    SETDIJ:  cpu time      0.0740: real time      0.0740
     EDDAV:  cpu time      3.0698: real time      3.0698
       DOS:  cpu time      0.0020: real time      0.0020
    CHARGE:  cpu time      0.2762: real time      0.2763
    MIXING:  cpu time      0.0013: real time      0.0013
    --------------------------------------------
      LOOP:  cpu time      3.4650: real time      3.4651

 eigenvalue-minimisations  :  5556
 total energy-change (2. order) :-0.6318702E+02  (-0.9568575E+02)
 number of electron      28.0000001 magnetization 
 augmentation part       17.1218532 magnetization 

 Broyden mixing:
  rms(total) = 0.10520E+02    rms(broyden)= 0.10520E+02
  rms(prec ) = 0.10623E+02
  weight for this iteration     100.00

 eigenvalues of (default mixing * dielectric matrix)
  average eigenvalue GAMMA=   0.9423
  3.1608  2.1739  1.0023  0.1074  0.5689  0.5689  0.5273  0.3043  0.0669

 Free energy of the ion-electron system (eV)
  ---------------------------------------------------
  alpha Z        PSCENC =       129.43330490
  Ewald energy   TEWEN  =     -2687.29417191
  -Hartree energ DENC   =     -1609.05869489
  -exchange      EXHF   =         0.00000000
  -V(xc)+E(xc)   XCENC  =       149.41297367
  PAW double counting   =      7401.66352273    -8248.64248732
  entropy T*S    EENTRO =        -0.00157451
  eigenvalues    EBANDS =      -329.67770528
  atomic energy  EATOM  =      5192.46507749
  Solvation  Ediel_sol  =         0.00000000
  ---------------------------------------------------
  free energy    TOTEN  =        -1.69975512 eV

  energy without entropy =       -1.69818061  energy(sigma->0) =       -1.69896787


--------------------------------------------------------------------------------------------------------




--------------------------------------- Iteration      1(  11)  ---------------------------------------


    POTLOK:  cpu time      0.0591: real time      0.0592
    SETDIJ:  cpu time      0.0735: real time      0.0735
     EDDAV:  cpu time      2.7198: real time      2.7200
       DOS:  cpu time      0.0016: real time      0.0016
    CHARGE:  cpu time      0.2662: real time      0.2662
    MIXING:  cpu time      0.0010: real time      0.0010
    --------------------------------------------
      LOOP:  cpu time      3.1212: real time      3.1214

 eigenvalue-minimisations  :  4800
 total energy-change (2. order) :-0.5597576E+01  (-0.5646618E+01)
 number of electron      28.0000001 magnetization 
 augmentation part       16.9469443 magnetization 

 Broyden mixing:
  rms(total) = 0.10340E+02    rms(broyden)= 0.10340E+02
  rms(prec ) = 0.10415E+02
  weight for this iteration     100.00

 eigenvalues of (default mixing * dielectric matrix)
  average eigenvalue GAMMA=   0.9456
  3.1627  2.3320  0.9331  0.1074  0.5677  0.5677  0.5210  0.3062  0.4791  0.4791

 Free energy of the ion-electron system (eV)
  ---------------------------------------------------
  alpha Z        PSCENC =       129.43330490
  Ewald energy   TEWEN  =     -2687.29417191
  -Hartree energ DENC   =     -1598.08956184
  -exchange      EXHF   =         0.00000000
  -V(xc)+E(xc)   XCENC  =       148.97161824
  PAW double counting   =      7396.18782588    -8241.47485420
  entropy T*S    EENTRO =        -0.00172089
  eigenvalues    EBANDS =      -347.49484903
  atomic energy  EATOM  =      5192.46507749
  Solvation  Ediel_sol  =         0.00000000
  ---------------------------------------------------
  free energy    TOTEN  =        -7.29733136 eV

  energy without entropy =       -7.29561047  energy(sigma->0) =       -7.29647092


--------------------------------------------------------------------------------------------------------




--------------------------------------- Iteration      1(  12)  ---------------------------------------


    POTLOK:  cpu time      0.0459: real time      0.0459
    SETDIJ:  cpu time      0.0748: real time      0.0748
     EDDAV:  cpu time      2.9120: real time      2.9125
       DOS:  cpu time      0.0013: real time      0.0013
    CHARGE:  cpu time      0.3139: real time      0.3139
    MIXING:  cpu time      0.0015: real time      0.0015
    --------------------------------------------
      LOOP:  cpu time      3.3495: real time      3.3500

 eigenvalue-minimisations  :  4978
 total energy-change (2. order) :-0.7222795E-01  (-0.1407539E+00)
 number of electron      28.0000001 magnetization 
 augmentation part       16.9306051 magnetization 

 Broyden mixing:
  rms(total) = 0.10618E+02    rms(broyden)= 0.10618E+02
  rms(prec ) = 0.10666E+02
  weight for this iteration     100.00

 eigenvalues of (default mixing * dielectric matrix)
  average eigenvalue GAMMA=   1.1928
  3.5255  2.5622  2.5622  0.1074  0.9519  0.9519  0.6250  0.6250  0.5312  0.3115
  0.3667

 Free energy of the ion-electron system (eV)
  ---------------------------------------------------
  alpha Z        PSCENC =       129.43330490
  Ewald energy   TEWEN  =     -2687.29417191
  -Hartree energ DENC   =     -1578.47031751
  -exchange      EXHF   =         0.00000000
  -V(xc)+E(xc)   XCENC  =       148.11286967
  PAW double counting   =      7484.12677707    -8335.08992178
  entropy T*S    EENTRO =        -0.00092655
  eigenvalues    EBANDS =      -360.65225070
  atomic energy  EATOM  =      5192.46507749
  Solvation  Ediel_sol  =         0.00000000
  ---------------------------------------------------
  free energy    TOTEN  =        -7.36955932 eV

  energy without entropy =       -7.36863276  energy(sigma->0) =       -7.36909604


--------------------------------------------------------------------------------------------------------




--------------------------------------- Iteration      1(  13)  ---------------------------------------


    POTLOK:  cpu time      0.0511: real time      0.0511
    SETDIJ:  cpu time      0.0810: real time      0.0810
     EDDAV:  cpu time      3.8465: real time      3.8468
       DOS:  cpu time      0.0026: real time      0.0026
    CHARGE:  cpu time      0.3052: real time      0.3052
    MIXING:  cpu time      0.0015: real time      0.0015
    --------------------------------------------
      LOOP:  cpu time      4.2880: real time      4.2882

 eigenvalue-minimisations  :  5668
 total energy-change (2. order) :-0.2352125E+00  (-0.2103578E+00)
 number of electron      28.0000001 magnetization 
 augmentation part       16.9399319 magnetization 

 Broyden mixing:
  rms(total) = 0.11409E+02    rms(broyden)= 0.11409E+02
  rms(prec ) = 0.11436E+02
  weight for this iteration     100.00

 eigenvalues of (default mixing * dielectric matrix)
  average eigenvalue GAMMA=   1.1247
  2.9414  2.5368  2.5368  0.1074  1.0658  0.9168  0.9168  0.6274  0.6274  0.5366
  0.3112  0.3723

 Free energy of the ion-electron system (eV)
  ---------------------------------------------------
  alpha Z        PSCENC =       129.43330490
  Ewald energy   TEWEN  =     -2687.29417191
  -Hartree energ DENC   =     -1513.96340239
  -exchange      EXHF   =         0.00000000
  -V(xc)+E(xc)   XCENC  =       145.43569239
  PAW double counting   =      7743.32587812    -8604.68231523
  entropy T*S    EENTRO =        -0.00265562
  eigenvalues    EBANDS =      -412.32217958
  atomic energy  EATOM  =      5192.46507749
  Solvation  Ediel_sol  =         0.00000000
  ---------------------------------------------------
  free energy    TOTEN  =        -7.60477183 eV

  energy without entropy =       -7.60211621  energy(sigma->0) =       -7.60344402


--------------------------------------------------------------------------------------------------------




--------------------------------------- Iteration      1(  14)  ---------------------------------------


    POTLOK:  cpu time      0.0588: real time      0.0588
    SETDIJ:  cpu time      0.0978: real time      0.0979
     EDDAV:  cpu time      3.6174: real time      3.6181
       DOS:  cpu time      0.0036: real time      0.0036
    CHARGE:  cpu time      0.3220: real time      0.3222
    MIXING:  cpu time      0.0014: real time      0.0013
    --------------------------------------------
      LOOP:  cpu time      4.1009: real time      4.1019

 eigenvalue-minimisations  :  5538
 total energy-change (2. order) :-0.1734355E+00  (-0.1703096E-01)
 number of electron      28.0000001 magnetization 
 augmentation part       16.9394230 magnetization 

 Broyden mixing:
  rms(total) = 0.11547E+02    rms(broyden)= 0.11547E+02
  rms(prec ) = 0.11579E+02
  weight for this iteration     100.00

 eigenvalues of (default mixing * dielectric matrix)
  average eigenvalue GAMMA=   1.0484
  2.9348  2.5416  2.5416  0.1074  1.0424  0.9273  0.9273  0.6271  0.6271  0.5361
  0.3113  0.3716  0.1337

 Free energy of the ion-electron system (eV)
  ---------------------------------------------------
  alpha Z        PSCENC =       129.43330490
  Ewald energy   TEWEN  =     -2687.29417191
  -Hartree energ DENC   =     -1501.58442825
  -exchange      EXHF   =         0.00000000
  -V(xc)+E(xc)   XCENC  =       144.94336976
  PAW double counting   =      7883.07956113    -8743.36507178
  entropy T*S    EENTRO =        -0.00239562
  eigenvalues    EBANDS =      -425.45345310
  atomic energy  EATOM  =      5192.46507749
  Solvation  Ediel_sol  =         0.00000000
  ---------------------------------------------------
  free energy    TOTEN  =        -7.77820738 eV

  energy without entropy =       -7.77581175  energy(sigma->0) =       -7.77700956


--------------------------------------------------------------------------------------------------------




--------------------------------------- Iteration      1(  15)  ---------------------------------------


    POTLOK:  cpu time      0.0584: real time      0.0584
    SETDIJ:  cpu time      0.0892: real time      0.0892
     EDDAV:  cpu time      3.5698: real time      3.5700
       DOS:  cpu time      0.0014: real time      0.0014
    CHARGE:  cpu time      0.2997: real time      0.2997
    MIXING:  cpu time      0.0013: real time      0.0013
    --------------------------------------------
      LOOP:  cpu time      4.0198: real time      4.0200

 eigenvalue-minimisations  :  5614
 total energy-change (2. order) :-0.6749501E-01  (-0.1423117E-02)
 number of electron      28.0000001 magnetization 
 augmentation part       16.9409170 magnetization 

 Broyden mixing:
  rms(total) = 0.11659E+02    rms(broyden)= 0.11659E+02
  rms(prec ) = 0.11693E+02
  weight for this iteration     100.00

 eigenvalues of (default mixing * dielectric matrix)
  average eigenvalue GAMMA=   1.3788
  3.8477  3.8477  2.6959  2.4105  0.1074  1.0195  1.0195  0.9412  0.9412  0.6296
  0.6296  0.5331  0.3114  0.3697

 Free energy of the ion-electron system (eV)
  ---------------------------------------------------
  alpha Z        PSCENC =       129.43330490
  Ewald energy   TEWEN  =     -2687.29417191
  -Hartree energ DENC   =     -1497.79038109
  -exchange      EXHF   =         0.00000000
  -V(xc)+E(xc)   XCENC  =       144.79060809
  PAW double counting   =      8040.14263798    -8900.28676954
  entropy T*S    EENTRO =        -0.00238359
  eigenvalues    EBANDS =      -429.30362471
  atomic energy  EATOM  =      5192.46507749
  Solvation  Ediel_sol  =         0.00000000
  ---------------------------------------------------
  free energy    TOTEN  =        -7.84570239 eV

  energy without entropy =       -7.84331880  energy(sigma->0) =       -7.84451059


--------------------------------------------------------------------------------------------------------




[...]
     16       8.4130      0.00000
     17      10.9073      0.00000
     18      10.9073      0.00000

 k-point   106 :       0.5000    0.1842    0.6842
  band No.  band energies     occupation 
      1     -19.6535      2.00000
      2     -19.6535      2.00000
      3     -19.5229      2.00000
      4     -19.5229      2.00000
      5     -19.4633      2.00000
      6     -19.4633      2.00000
      7     -19.4278      2.00000
      8     -19.4278      2.00000
      9     -19.2950      2.00000
     10     -19.2950      2.00000
     11      -3.6892      2.00000
     12      -3.6892      2.00000
     13       1.2936      2.00000
     14       1.2936      2.00000
     15       8.1394      0.00000
     16       8.1394      0.00000
     17      11.2329      0.00000
     18      11.2329      0.00000

 k-point   107 :       0.5000    0.1711    0.6711
  band No.  band energies     occupation 
      1     -19.6527      2.00000
      2     -19.6527      2.00000
      3     -19.5260      2.00000
      4     -19.5260      2.00000
      5     -19.4625      2.00000
      6     -19.4625      2.00000
      7     -19.4255      2.00000
      8     -19.4255      2.00000
      9     -19.2957      2.00000
     10     -19.2957      2.00000
     11      -3.6958      2.00000
     12      -3.6958      2.00000
     13       1.3402      2.00000
     14       1.3402      2.00000
     15       7.8739      0.00000
     16       7.8739      0.00000
     17      11.5614      0.00000
     18      11.5614      0.00000

 k-point   108 :       0.5000    0.1579    0.6579
  band No.  band energies     occupation 
      1     -19.6518      2.00000
      2     -19.6518      2.00000
      3     -19.5293      2.00000
      4     -19.5293      2.00000
      5     -19.4617      2.00000
      6     -19.4617      2.00000
      7     -19.4230      2.00000
      8     -19.4230      2.00000
      9     -19.2965      2.00000
     10     -19.2965      2.00000
     11      -3.7032      2.00000
     12      -3.7032      2.00000
     13       1.3935      2.00000
     14       1.3935      2.00000
     15       7.6178      0.00000
     16       7.6178      0.00000
     17      11.8910      0.00000
     18      11.8910      0.00000

 k-point   109 :       0.5000    0.1447    0.6447
  band No.  band energies     occupation 
      1     -19.6508      2.00000
      2     -19.6508      2.00000
      3     -19.5327      2.00000
      4     -19.5327      2.00000
      5     -19.4611      2.00000
      6     -19.4611      2.00000
      7     -19.4204      2.00000
      8     -19.4204      2.00000
      9     -19.2974      2.00000
     10     -19.2974      2.00000
     11      -3.7111      2.00000
     12      -3.7111      2.00000
     13       1.4525      2.00000
     14       1.4525      2.00000
     15       7.3723      0.00000
     16       7.3723      0.00000
     17      12.2199      0.00000
     18      12.2199      0.00000

 k-point   110 :       0.5000    0.1316    0.6316
  band No.  band energies     occupation 
      1     -19.6497      2.00000
      2     -19.6497      2.00000
      3     -19.5361      2.00000
      4     -19.5361      2.00000
      5     -19.4606      2.00000
      6     -19.4606      2.00000
      7     -19.4177      2.00000
      8     -19.4177      2.00000
      9     -19.2983      2.00000
     10     -19.2983      2.00000
     11      -3.7193      2.00000
     12      -3.7193      2.00000
     13       1.5162      2.00000
     14       1.5162      2.00000
     15       7.1386      0.00000
     16       7.1386      0.00000
     17      12.5459      0.00000
     18      12.5459      0.00000

 k-point   111 :       0.5000    0.1184    0.6184
  band No.  band energies     occupation 
      1     -19.6486      2.00000
      2     -19.6486      2.00000
      3     -19.5395      2.00000
      4     -19.5395      2.00000
      5     -19.4602      2.00000
      6     -19.4602      2.00000
      7     -19.4149      2.00000
      8     -19.4149      2.00000
      9     -19.2993      2.00000
     10     -19.2993      2.00000
     11      -3.7275      2.00000
     12      -3.7275      2.00000
     13       1.5832      2.00000
     14       1.5832      2.00000
     15       6.9180      0.00000
     16       6.9180      0.00000
     17      12.8661      0.00000
     18      12.8662      0.00000

 k-point   112 :       0.5000    0.1053    0.6053
  band No.  band energies     occupation 
      1     -19.6474      2.00000
      2     -19.6474      2.00000
      3     -19.5427      2.00000
      4     -19.5427      2.00000
      5     -19.4598      2.00000
      6     -19.4598      2.00000
      7     -19.4122      2.00000
      8     -19.4122      2.00000
      9     -19.3003      2.00000
     10     -19.3003      2.00000
     11      -3.7355      2.00000
     12      -3.7355      2.00000
     13       1.6520      2.00000
     14       1.6521      2.00000
     15       6.7120      0.00000
     16       6.7120      0.00000
     17      13.1771      0.00000
     18      13.1771      0.00000

 k-point   113 :       0.5000    0.0921    0.5921
  band No.  band energies     occupation 
      1     -19.6462      2.00000
      2     -19.6462      2.00000
      3     -19.5457      2.00000
      4     -19.5457      2.00000
      5     -19.4595      2.00000
      6     -19.4595      2.00000
      7     -19.4097      2.00000
      8     -19.4097      2.00000
      9     -19.3013      2.00000
     10     -19.3013      2.00000
     11      -3.7431      2.00000
     12      -3.7431      2.00000
     13       1.7209      2.00000
     14       1.7209      2.00000
     15       6.5223      0.00000
     16       6.5223      0.00000
     17      13.4742      0.00000
     18      13.4742      0.00000

 k-point   114 :       0.5000    0.0789    0.5789
  band No.  band energies     occupation 
      1     -19.6451      2.00000
      2     -19.6451      2.00000
      3     -19.5485      2.00000
      4     -19.5485      2.00000
      5     -19.4593      2.00000
      6     -19.4593      2.00000
      7     -19.4073      2.00000
      8     -19.4073      2.00000
      9     -19.3023      2.00000
     10     -19.3023      2.00000
     11      -3.7502      2.00000
     12      -3.7502      2.00000
     13       1.7878      2.00000
     14       1.7878      2.00000
     15       6.3509      0.00000
     16       6.3509      0.00000
     17      13.7513      0.00000
     18      13.7513      0.00000

 k-point   115 :       0.5000    0.0658    0.5658
  band No.  band energies     occupation 
      1     -19.6440      2.00000
      2     -19.6440      2.00000
      3     -19.5510      2.00000
      4     -19.5510      2.00000
      5     -19.4591      2.00000
      6     -19.4591      2.00000
      7     -19.4052      2.00000
      8     -19.4052      2.00000
      9     -19.3032      2.00000
     10     -19.3032      2.00000
     11      -3.7564      2.00000
     12      -3.7564      2.00000
     13       1.8505      2.00000
     14       1.8505      2.00000
     15       6.2000      0.00000
     16       6.2000      0.00000
     17      14.0014      0.00000
     18      14.0014      0.00000

 k-point   116 :       0.5000    0.0526    0.5526
  band No.  band energies     occupation 
      1     -19.6431      2.00000
      2     -19.6431      2.00000
      3     -19.5531      2.00000
      4     -19.5531      2.00000
      5     -19.4589      2.00000
      6     -19.4589      2.00000
      7     -19.4033      2.00000
      8     -19.4033      2.00000
      9     -19.3039      2.00000
     10     -19.3039      2.00000
     11      -3.7618      2.00000
     12      -3.7618      2.00000
     13       1.9066      2.00000
     14       1.9066      2.00000
     15       6.0718      0.00000
     16       6.0718      0.00000
     17      14.2167      0.00000
     18      14.2167      0.00000

 k-point   117 :       0.5000    0.0395    0.5395
  band No.  band energies     occupation 
      1     -19.6423      2.00000
      2     -19.6423      2.00000
      3     -19.5548      2.00000
      4     -19.5548      2.00000
      5     -19.4589      2.00000
      6     -19.4589      2.00000
      7     -19.4018      2.00000
      8     -19.4018      2.00000
      9     -19.3046      2.00000
     10     -19.3046      2.00000
     11      -3.7661      2.00000
     12      -3.7661      2.00000
     13       1.9536      2.00000
     14       1.9536      2.00000
     15       5.9688      0.00000
     16       5.9688      0.00000
     17      14.3899      0.00000
     18      14.3899      0.00000

 k-point   118 :       0.5000    0.0263    0.5263
  band No.  band energies     occupation 
      1     -19.6417      2.00000
      2     -19.6417      2.00000
      3     -19.5561      2.00000
      4     -19.5561      2.00000
      5     -19.4588      2.00000
      6     -19.4588      2.00000
      7     -19.4008      2.00000
      8     -19.4007      2.00000
      9     -19.3051      2.00000
     10     -19.3051      2.00000
     11      -3.7692      2.00000
     12      -3.7692      2.00000
     13       1.9891      2.00000
     14       1.9891      2.00000
     15       5.8933      0.00000
     16       5.8933      0.00000
     17      14.5156      0.00000
     18      14.5156      0.00000

 k-point   119 :       0.5000    0.0132    0.5132
  band No.  band energies     occupation 
      1     -19.6414      2.00000
      2     -19.6414      2.00000
      3     -19.5569      2.00000
      4     -19.5569      2.00000
      5     -19.4588      2.00000
      6     -19.4588      2.00000
      7     -19.4001      2.00000
      8     -19.4001      2.00000
      9     -19.3054      2.00000
     10     -19.3054      2.00000
     11      -3.7712      2.00000
     12      -3.7712      2.00000
     13       2.0114      2.00000
     14       2.0114      2.00000
     15       5.8471      0.00000
     16       5.8471      0.00000
     17      14.5914      0.00000
     18      14.5914      0.00000

 k-point   120 :       0.5000    0.0000    0.5000
  band No.  band energies     occupation 
      1     -19.6412      2.00000
      2     -19.6412      2.00000
      3     -19.5571      2.00000
      4     -19.5571      2.00000
      5     -19.4587      2.00000
      6     -19.4587      2.00000
      7     -19.3999      2.00000
      8     -19.3999      2.00000
      9     -19.3055      2.00000
     10     -19.3055      2.00000
     11      -3.7718      2.00000
     12      -3.7718      2.00000
     13       2.0189      2.00000
     14       2.0189      2.00000
     15       5.8316      0.00000
     16       5.8316      0.00000
     17      14.6167      0.00000
     18      14.6167      0.00000


--------------------------------------------------------------------------------------------------------


 soft charge-density along one line, spin component           1
         0         1         2         3         4         5         6         7         8         9
 total charge-density along one line

 pseudopotential strength for first ion, spin component:           1
-22.057   0.000  -0.000   0.000   0.000   4.281  -0.000   0.000
  0.000 -22.057   0.000   0.000  -0.000  -0.000   4.281  -0.000
 -0.000   0.000 -22.058   0.000  -0.000   0.000  -0.000   4.281
  0.000   0.000   0.000 -22.057   0.000  -0.000  -0.000  -0.000
  0.000  -0.000  -0.000   0.000 -22.058  -0.000   0.000   0.000
  4.281  -0.000   0.000  -0.000  -0.000   1.986   0.000   0.000
 -0.000   4.281  -0.000  -0.000   0.000   0.000   1.986  -0.000
  0.000  -0.000   4.281  -0.000   0.000   0.000  -0.000   1.986
 -0.000  -0.000  -0.000   4.281  -0.000   0.000   0.000  -0.000
 -0.000   0.000   0.000  -0.000   4.281  -0.000   0.000  -0.000
  0.000   0.000  -0.000   0.000   0.000  -0.000  -0.000   0.000
  0.000   0.000  -0.000   0.000   0.000  -0.000  -0.000   0.000
 -0.000  -0.000  -0.000  -0.001  -0.000   0.000   0.000   0.000
 -0.001  -0.000   0.000  -0.000   0.000   0.000   0.000  -0.000
 -0.000  -0.001  -0.000  -0.000   0.000   0.000   0.000   0.000
 -0.000  -0.000  -0.000  -0.002  -0.000   0.000   0.000   0.000
 -0.002  -0.000   0.000  -0.000   0.000   0.000   0.000  -0.000
 -0.000  -0.002  -0.000  -0.000   0.000   0.000   0.000   0.000
 total augmentation occupancy for first ion, spin component:           1
  2.007   0.000   0.000   0.000  -0.000   0.021   0.000   0.000   0.000   0.000  -0.000   0.000   0.000   0.060   0.000  -0.000
  0.000   2.007   0.000  -0.000  -0.000   0.000   0.021   0.000  -0.000  -0.000   0.000   0.000  -0.000  -0.000   0.060   0.000
  0.000   0.000   2.004  -0.000   0.000   0.000   0.000   0.011  -0.000   0.000   0.000   0.000  -0.000   0.000   0.000   0.000
  0.000  -0.000  -0.000   2.007   0.000   0.000  -0.000  -0.000   0.021   0.000   0.000  -0.000   0.060   0.000  -0.000  -0.017
 -0.000  -0.000  -0.000   0.000   2.004   0.000  -0.000   0.000   0.000   0.011   0.000   0.000   0.000   0.000  -0.000  -0.000
  0.021   0.000   0.000   0.000   0.000   0.049  -0.000   0.000   0.000  -0.000   0.000   0.000   0.000   0.250   0.000  -0.000
 -0.000   0.021   0.000  -0.000  -0.000  -0.000   0.049   0.000  -0.000  -0.000   0.000   0.000  -0.000  -0.000   0.250   0.000
  0.000   0.000   0.011  -0.000   0.000   0.000   0.000   0.009  -0.000   0.000   0.000   0.000  -0.000   0.000   0.000   0.000
  0.000  -0.000  -0.000   0.021   0.000   0.000  -0.000  -0.000   0.049   0.000   0.000  -0.000   0.250   0.000  -0.000  -0.037
  0.000  -0.000   0.000   0.000   0.011  -0.000  -0.000   0.000   0.000   0.009   0.000   0.000   0.000   0.000  -0.000  -0.000
 -0.000   0.000  -0.000   0.000   0.000   0.000   0.000  -0.000   0.000   0.000   3.656  -1.183   0.000   0.000   0.000   0.000
  0.000   0.000   0.000  -0.000   0.000   0.000   0.000   0.000  -0.000   0.000  -1.183   0.583  -0.000   0.000   0.000  -0.000
  0.000  -0.000  -0.000   0.060   0.000   0.000  -0.000  -0.000   0.250   0.000   0.000  -0.000   2.042   0.000  -0.000  -0.324
  0.060  -0.000   0.000   0.000  -0.000   0.250  -0.000   0.000   0.000   0.000   0.000  -0.000   0.000   2.042   0.000  -0.000
  0.000   0.060   0.000  -0.000  -0.000   0.000   0.250   0.000  -0.000  -0.000   0.000   0.000  -0.000   0.000   2.042   0.000
 -0.000   0.000   0.000  -0.017  -0.000  -0.000   0.000   0.000  -0.037  -0.000   0.000   0.000  -0.324  -0.000   0.000   0.061
 -0.017   0.000  -0.000  -0.000   0.000  -0.037   0.000  -0.000  -0.000   0.000   0.000   0.000  -0.000  -0.324  -0.000   0.000
 -0.000  -0.017  -0.000   0.000   0.000  -0.000  -0.037  -0.000   0.000   0.000   0.000   0.000   0.000  -0.000  -0.324  -0.000


------------------------ aborting loop because EDIFF is reached ----------------------------------------


    CHARGE:  cpu time      0.2877: real time      0.2877
    FORLOC:  cpu time      0.0013: real time      0.0013
    FORNL :  cpu time      0.6730: real time      0.6730
    STRESS:  cpu time      1.9135: real time      1.9138
    FORCOR:  cpu time      0.0512: real time      0.0512
    FORHAR:  cpu time      0.0158: real time      0.0158
    MIXING:  cpu time      0.0027: real time      0.0027
    OFIELD:  cpu time      0.0000: real time      0.0000

  FORCE on cell =-STRESS in cart. coord.  units (eV):
  Direction    XX          YY          ZZ          XY          YZ          ZX
  --------------------------------------------------------------------------------------
  Alpha Z   129.43330   129.43330   129.43330
  Ewald    -895.76513  -895.76513  -895.76513    -0.00000     0.00000    -0.00000
  Hartree   506.56137   506.56137   506.56137     0.00000     0.00000     0.00000
  E(xc)    -164.93373  -164.93373  -164.93373     0.00001     0.00001     0.00001
  Local     -30.28306   -30.28306   -30.28306     0.00028     0.00028     0.00028
  n-local    60.43615    54.80451    59.02633    -1.95475    -0.78531    -1.31972
  augment   252.35095   252.35095   252.35094    -0.00022    -0.00022    -0.00022
  Kinetic   149.24977   143.38247   149.57829    -2.14678    -1.43142    -2.22566
  Fock        0.00000     0.00000     0.00000     0.00000     0.00000     0.00000
  -------------------------------------------------------------------------------------
  Total       2.85620     2.85620     2.85620     0.00000     0.00000    -0.00000
  in kB     101.08265   101.08265   101.08265     0.00000     0.00000    -0.00000
  external pressure =      101.08 kB  Pullay stress =        0.00 kB


 VOLUME and BASIS-vectors are now :
 -----------------------------------------------------------------------------
  energy-cutoff  :      450.00
  volume of cell :       45.27
      direct lattice vectors                 reciprocal lattice vectors
     0.000000000  2.828770000  2.828770000    -0.176755268  0.176755268  0.176755268
     2.828770000  0.000000000  2.828770000     0.176755268 -0.176755268  0.176755268
     2.828770000  2.828770000  0.000000000     0.176755268  0.176755268 -0.176755268

  length of vectors
     4.000484899  4.000484899  4.000484899     0.306149105  0.306149105  0.306149105


 FORCES acting on ions
    electron-ion (+dipol)            ewald-force                    non-local-force                 convergence-correction
 -----------------------------------------------------------------------------------------------
   0.308E-06 0.308E-06 0.382E-06   -.440E-13 0.413E-14 0.179E-12   -.391E-16 -.126E-15 -.108E-15   0.393E-07 0.393E-07 0.393E-07
   -.308E-06 -.308E-06 -.382E-06   0.432E-13 -.379E-14 -.174E-12   0.579E-16 0.138E-15 0.111E-15   -.393E-07 -.393E-07 -.393E-07
 -----------------------------------------------------------------------------------------------
   0.472E-11 0.374E-11 0.473E-11   -.805E-15 0.340E-15 0.466E-14   0.188E-16 0.118E-16 0.256E-17   0.196E-11 0.624E-12 0.475E-12


 POSITION                                       TOTAL-FORCE (eV/Angst)
 -----------------------------------------------------------------------------------
      2.82877      2.82877      2.82877         0.000000      0.000000      0.000000
      4.24315      4.24315      4.24315        -0.000000     -0.000000     -0.000000
 -----------------------------------------------------------------------------------
    total drift:                                0.000000      0.000000      0.000000


--------------------------------------------------------------------------------------------------------



  FREE ENERGIE OF THE ION-ELECTRON SYSTEM (eV)
  ---------------------------------------------------
  free  energy   TOTEN  =        -7.16176724 eV

  energy  without entropy=       -7.15991726  energy(sigma->0) =       -7.16084225



--------------------------------------------------------------------------------------------------------


    POTLOK:  cpu time      0.1152: real time      0.1152


--------------------------------------------------------------------------------------------------------


 writing wavefunctions
     LOOP+:  cpu time    143.9168: real time    143.9460
    4ORBIT:  cpu time      0.0000: real time      0.0000

 total amount of memory used by VASP MPI-rank0    83507. kBytes
=======================================================================

   base      :      30000. kBytes
   nonl-proj :      17277. kBytes
   fftplans  :      13127. kBytes
   grid      :       5205. kBytes
   one-center:         31. kBytes
   wavefun   :      17867. kBytes

  
  
 General timing and accounting informations for this job:
 ========================================================
  
                  Total CPU time used (sec):      145.610
                            User time (sec):      138.062
                          System time (sec):        7.548
                         Elapsed time (sec):      145.934
  
                   Maximum memory used (kb):      149500.
                   Average memory used (kb):          N/A
  
                          Minor page faults:       587730
                          Major page faults:          361
                 Voluntary context switches:         1470
