    2    2  100    1
  0.2263565E+02  0.4000485E-09  0.4000485E-09  0.4000485E-09  0.5000000E-15
   1.0000000000000000E-004
  CAR 
 unknown system                          
     28    120     18

  0.1262379E-14  0.1262379E-14  0.1262379E-14  0.2962963E-03
      1        -20.200356   1.000000
      2        -20.200356   1.000000
      3        -20.200354   1.000000
      4        -20.168393   1.000000
      5        -20.168393   1.000000
      6        -19.980832   1.000000
      7        -19.980832   1.000000
      8        -19.980830   1.000000
      9        -19.971576   1.000000
     10        -19.971576   1.000000
     11         -7.877006   1.000000
     12          4.174677   1.000000
     13          4.553176   0.526912
     14          4.553191   0.526743
     15          4.553191   0.526742
     16          7.086767   0.000000
     17          7.086774   0.000000
     18          7.086774   0.000000

  0.6666667E-01  0.1265213E-14  0.1262022E-14  0.2370370E-02
      1        -20.203032   1.000000
      2        -20.203031   1.000000
      3        -20.199811   1.000000
      4        -20.164976   1.000000
      5        -20.164976   1.000000
      6        -19.985776   1.000000
      7        -19.985775   1.000000
      8        -19.981591   1.000000
      9        -19.967171   1.000000
     10        -19.967170   1.000000
     11         -7.824989   1.000000
     12          3.197862   1.000000
     13          4.449525   0.998647
     14          4.449538   0.998645
     15          5.193213   0.000000
     16          7.225988   0.000000
     17          7.225995   0.000000
     18          7.294907   0.000000

  0.1333333E+00  0.1254069E-14  0.1247288E-14  0.2370370E-02
      1        -20.208335   1.000000
      2        -20.208334   1.000000
      3        -20.198076   1.000000
      4        -20.157395   1.000000
      5        -20.157395   1.000000
      6        -19.993462   1.000000
      7        -19.993461   1.000000
      8        -19.983882   1.000000
      9        -19.960871   1.000000
     10        -19.960870   1.000000
     11         -7.670181   1.000000
     12          1.970942   1.000000
     13          4.203883   1.000000
     14          4.203896   1.000000
     15          5.391054   0.000000
     16          7.557856   0.000000
     17          7.557863   0.000000
     18          8.022958   0.000000

  0.2000000E+00  0.1252790E-14  0.1246431E-14  0.2370370E-02
      1        -20.213507   1.000000
      2        -20.213506   1.000000
      3        -20.195273   1.000000
      4        -20.148999   1.000000
      5        -20.148998   1.000000
      6        -20.000650   1.000000
      7        -20.000650   1.000000
      8        -19.987102   1.000000
      9        -19.955507   1.000000
     10        -19.955505   1.000000
     11         -7.416986   1.000000
     12          0.755363   1.000000
     13          3.918968   1.000000
     14          3.918979   1.000000
     15          5.242138   0.000000
     16          7.920011   0.000000
     17          7.920019   0.000000
     18          9.070112   0.000000

  0.2666667E+00  0.1253148E-14  0.1245574E-14  0.2370370E-02
      1        -20.217638   1.000000
      2        -20.217637   1.000000
      3        -20.191993   1.000000
      4        -20.141637   1.000000
      5        -20.141636   1.000000
      6        -20.006434   1.000000
      7        -20.006434   1.000000
      8        -19.990875   1.000000
      9        -19.951329   1.000000
     10        -19.951328   1.000000
     11         -7.075440   1.000000
     12         -0.389130   1.000000
     13          3.656562   1.000000
     14          3.656574   1.000000
     15          5.020595   0.000000
     16          8.177728   0.000000
     17          8.177737   0.000000
     18         10.223216   0.000000

  0.3333333E+00  0.1261683E-14  0.1244717E-14  0.2370370E-02
      1        -20.220302   1.000000
      2        -20.220301   1.000000
      3        -20.188789   1.000000
      4        -20.136121   1.000000
      5        -20.136121   1.000000
      6        -20.010345   1.000000
      7        -20.010345   1.000000
      8        -19.994536   1.000000
      9        -19.948422   1.000000
     10        -19.948420   1.000000
     11         -6.668060   1.000000
     12         -1.414527   1.000000
     13          3.445970   1.000000
     14          3.445981   1.000000
     15          4.823533   0.000000
     16          8.285534   0.000000
     17          8.285542   0.000000
     18         11.349602   0.000000

  0.4000000E+00  0.1258666E-14  0.1243861E-14  0.2370370E-02
      1        -20.222004   1.000000
      2        -20.222003   1.000000
      3        -20.186380   1.000000
      4        -20.132835   1.000000
      5        -20.132834   1.000000
      6        -20.012723   1.000000
      7        -20.012722   1.000000
      8        -19.997555   1.000000
      9        -19.946748   1.000000
     10        -19.946746   1.000000
     11         -6.248654   1.000000
     12         -2.252546   1.000000
     13          3.300706   1.000000
     14          3.300717   1.000000
     15          4.683205   0.000153
     16          8.294979   0.000000
     17          8.294987   0.000000
     18         11.733979   0.000000

  0.4666667E+00  0.1255701E-14  0.1243004E-14  0.2370370E-02
      1        -20.222596   1.000000
      2        -20.222595   1.000000
      3        -20.184658   1.000000
      4        -20.131365   1.000000
      5        -20.131365   1.000000
      6        -20.013530   1.000000
      7        -20.013530   1.000000
      8        -19.999106   1.000000
      9        -19.945991   1.000000
     10        -19.945989   1.000000
     11         -5.944515   1.000000
     12         -2.767818   1.000000
     13          3.226892   1.000000
     14          3.226902   1.000000
     15          4.611128   0.058021
     16          8.279159   0.000000
     17          8.279167   0.000000
     18         11.672063   0.000000

  0.6666667E-01  0.6666667E-01  0.1259516E-14  0.1777778E-02
      1        -20.203370   1.000000
      2        -20.202051   1.000000
      3        -20.202051   1.000000
      4        -20.166139   1.000000
      5        -20.161420   1.000000
      6        -19.993918   1.000000
      7        -19.978558   1.000000
      8        -19.978557   1.000000
      9        -19.973706   1.000000
     10        -19.963485   1.000000
     11         -7.807563   1.000000
     12          3.113354   1.000000
     13          4.253816   1.000000
     14          4.253825   1.000000
     15          5.587533   0.000000
     16          6.870329   0.000000
     17          7.474556   0.000000
     18          7.474562   0.000000

  0.1333333E+00  0.6666667E-01  0.1260309E-14  0.7111111E-02
      1        -20.208564   1.000000
      2        -20.205416   1.000000
      3        -20.200787   1.000000
      4        -20.161325   1.000000
      5        -20.153580   1.000000
      6        -20.003102   1.000000
      7        -19.984097   1.000000
      8        -19.978306   1.000000
      9        -19.968523   1.000000
     10        -19.958502   1.000000
     11         -7.686757   1.000000
     12          2.202113   1.000000
     13          3.964556   1.000000
     14          4.033099   1.000000
     15          5.952723   0.000000
     16          6.880091   0.000000
     17          7.875145   0.000000
     18          8.031646   0.000000

  0.2000000E+00  0.6666667E-01  0.1245574E-14  0.7111111E-02
      1        -20.214699   1.000000
      2        -20.210311   1.000000
      3        -20.197486   1.000000
      4        -20.153843   1.000000
      5        -20.144580   1.000000
      6        -20.011416   1.000000
      7        -19.991822   1.000000
      8        -19.981099   1.000000
      9        -19.961948   1.000000
     10        -19.953017   1.000000
     11         -7.465719   1.000000
     12          1.070943   1.000000
     13          3.670471   1.000000
     14          3.751247   1.000000
     15          5.886552   0.000000
     16          7.232574   0.000000
     17          8.282135   0.000000
     18          8.872404   0.000000

  0.2666667E+00  0.6666667E-01  0.1258595E-14  0.7111111E-02
      1        -20.219831   1.000000
      2        -20.214769   1.000000
      3        -20.193083   1.000000
      4        -20.146140   1.000000
      5        -20.136521   1.000000
      6        -20.017843   1.000000
      7        -19.998707   1.000000
      8        -19.985721   1.000000
      9        -19.956390   1.000000
     10        -19.948260   1.000000
     11         -7.152111   1.000000
     12         -0.058620   1.000000
     13          3.419629   1.000000
     14          3.436320   1.000000
     15          5.674457   0.000000
     16          7.645328   0.000000
     17          8.566202   0.000000
     18          9.749324   0.000000

  0.3333333E+00  0.6666667E-01  0.1271616E-14  0.7111111E-02
      1        -20.223578   1.000000
      2        -20.218260   1.000000
      3        -20.188381   1.000000
      4        -20.139613   1.000000
      5        -20.130729   1.000000
      6        -20.021546   1.000000
      7        -20.004610   1.000000
      8        -19.991247   1.000000
      9        -19.951984   1.000000
     10        -19.944620   1.000000
     11         -6.762914   1.000000
     12         -1.106395   1.000000
     13          3.147477   1.000000
     14          3.234893   1.000000
     15          5.460666   0.000000
     16          7.924635   0.000000
     17          8.666559   0.000000
     18         10.604394   0.000000

  0.4000000E+00  0.6666667E-01  0.1243004E-14  0.7111111E-02
      1        -20.225875   1.000000
      2        -20.220900   1.000000
      3        -20.184107   1.000000
      4        -20.134417   1.000000
      5        -20.127876   1.000000
      6        -20.022069   1.000000
      7        -20.009445   1.000000
      8        -19.996734   1.000000
      9        -19.948599   1.000000
     10        -19.942356   1.000000
     11         -6.337804   1.000000
     12         -2.005009   1.000000
     13          2.913666   1.000000
     14          3.126458   1.000000
     15          5.291271   0.000000
     16          8.054568   0.000000
     17          8.627352   0.000000
     18         11.401963   0.000000

  0.4666667E+00  0.6666667E-01  0.1242147E-14  0.7111111E-02
      1        -20.226858   1.000000
      2        -20.222640   1.000000
      3        -20.180753   1.000000
      4        -20.130526   1.000000
      5        -20.127795   1.000000
      6        -20.019902   1.000000
      7        -20.013598   1.000000
      8        -20.001206   1.000000
      9        -19.946072   1.000000
     10        -19.941591   1.000000
     11         -5.973827   1.000000
     12         -2.643419   1.000000
     13          2.748625   1.000000
     14          3.097765   1.000000
     15          5.183911   0.000000
     16          8.122194   0.000000
     17          8.532679   0.000000
     18         11.790560   0.000000

 -0.4666667E+00  0.6666667E-01  0.1226386E-14  0.7111111E-02
      1        -20.226577   1.000000
      2        -20.223870   1.000000
      3        -20.179572   1.000000
      4        -20.129560   1.000000
      5        -20.128102   1.000000
      6        -20.016810   1.000000
      7        -20.015859   1.000000
      8        -20.003713   1.000000
      9        -19.944422   1.000000
     10        -19.942211   1.000000
     11         -5.856508   1.000000
     12         -2.829493   1.000000
     13          2.659954   1.000000
     14          3.148101   1.000000
     15          5.145661   0.000000
     16          8.196055   0.000000
     17          8.439113   0.000000
     18         11.859656   0.000000

 -0.4000000E+00  0.6666667E-01  0.1281040E-14  0.7111111E-02
      1        -20.225119   1.000000
      2        -20.224252   1.000000
      3        -20.180752   1.000000
      4        -20.132615   1.000000
      5        -20.127200   1.000000
      6        -20.018762   1.000000
      7        -20.012078   1.000000
      8        -20.002542   1.000000
      9        -19.944287   1.000000
     10        -19.943648   1.000000
     11         -6.079030   1.000000
     12         -2.468642   1.000000
     13          2.652605   1.000000
     14          3.273584   1.000000
     15          5.178231   0.000000
     16          8.294669   0.000000
     17          8.361002   0.000000
     18         11.827605   0.000000

 -0.3333333E+00  0.6666667E-01  0.1280183E-14  0.7111111E-02
      1        -20.223582   1.000000
      2        -20.222612   1.000000
      3        -20.184085   1.000000
      4        -20.136632   1.000000
      5        -20.128747   1.000000
      6        -20.018836   1.000000
      7        -20.009814   1.000000
      8        -19.997237   1.000000
      9        -19.947648   1.000000
     10        -19.944088   1.000000
     11         -6.480089   1.000000
     12         -1.725536   1.000000
     13          2.730077   1.000000
     14          3.466972   1.000000
     15          5.278799   0.000000
     16          8.271763   0.000000
     17          8.386761   0.000000
     18         11.347575   0.000000

 -0.2666667E+00  0.6666667E-01  0.1251571E-14  0.7111111E-02
      1        -20.221676   1.000000
      2        -20.218954   1.000000
      3        -20.188419   1.000000
      4        -20.141783   1.000000
      5        -20.133201   1.000000
      6        -20.016148   1.000000
      7        -20.006925   1.000000
      8        -19.990214   1.000000
      9        -19.952329   1.000000
     10        -19.945823   1.000000
     11         -6.900044   1.000000
     12         -0.769262   1.000000
     13          2.894775   1.000000
     14          3.716033   1.000000
     15          5.437119   0.000000
     16          8.112082   0.000000
     17          8.379921   0.000000
     18         10.415565   0.000000

 -0.2000000E+00  0.6666667E-01  0.1250714E-14  0.7111111E-02
      1        -20.218329   1.000000
      2        -20.214138   1.000000
      3        -20.193239   1.000000
      4        -20.148312   1.000000
      5        -20.140387   1.000000
      6        -20.010814   1.000000
      7        -20.002514   1.000000
      8        -19.983340   1.000000
      9        -19.958292   1.000000
     10        -19.949094   1.000000
     11         -7.266736   1.000000
     12          0.308239   1.000000
     13          3.148506   1.000000
     14          3.998595   1.000000
     15          5.624468   0.000000
     16          7.837895   0.000000
     17          8.138062   0.000000
     18          9.511612   0.000000

 -0.1333333E+00  0.6666667E-01  0.1263735E-14  0.7111111E-02
      1        -20.213546   1.000000
      2        -20.208606   1.000000
      3        -20.197535   1.000000
      4        -20.155592   1.000000
      5        -20.149252   1.000000
      6        -20.003382   1.000000
      7        -19.996575   1.000000
      8        -19.977585   1.000000
      9        -19.965173   1.000000
     10        -19.953862   1.000000
     11         -7.550566   1.000000
     12          1.434455   1.000000
     13          3.495513   1.000000
     14          4.271404   1.000000
     15          5.755390   0.000000
     16          7.499230   0.000000
     17          7.669995   0.000000
     18          8.695415   0.000000

 -0.6666667E-01  0.6666667E-01  0.1235123E-14  0.3555556E-02
      1        -20.207797   1.000000
      2        -20.203697   1.000000
      3        -20.200087   1.000000
      4        -20.162165   1.000000
      5        -20.158245   1.000000
      6        -19.994691   1.000000
      7        -19.989836   1.000000
      8        -19.976274   1.000000
      9        -19.969613   1.000000
     10        -19.959997   1.000000
     11         -7.738606   1.000000
     12          2.488534   1.000000
     13          3.953475   1.000000
     14          4.453862   0.997990
     15          5.609193   0.000000
     16          7.243370   0.000000
     17          7.299669   0.000000
     18          7.916371   0.000000

  0.1333333E+00  0.1333333E+00  0.1256653E-14  0.1777778E-02
      1        -20.207234   1.000000
      2        -20.206382   1.000000
      3        -20.206381   1.000000
      4        -20.159530   1.000000
      5        -20.145320   1.000000
      6        -20.014639   1.000000
      7        -19.979818   1.000000
      8        -19.972373   1.000000
      9        -19.972373   1.000000
     10        -19.957205   1.000000
     11         -7.599885   1.000000
     12          1.895730   1.000000
     13          3.653747   1.000000
     14          3.653755   1.000000
     15          6.402357   0.000000
     16          6.645996   0.000000
     17          8.336690   0.000000
     18          8.336697   0.000000

  0.2000000E+00  0.1333333E+00  0.1265534E-14  0.7111111E-02
      1        -20.213912   1.000000
      2        -20.210019   1.000000
      3        -20.202809   1.000000
      4        -20.153620   1.000000
      5        -20.135652   1.000000
      6        -20.025317   1.000000
      7        -19.986983   1.000000
      8        -19.971938   1.000000
      9        -19.965904   1.000000
     10        -19.953670   1.000000
     11         -7.411677   1.000000
     12          1.099765   1.000000
     13          3.332226   1.000000
     14          3.350836   1.000000
     15          6.352206   0.000000
     16          6.881812   0.000000
     17          8.810826   0.000000
     18          8.935191   0.000000

  0.2666667E+00  0.1333333E+00  0.1243861E-14  0.7111111E-02
      1        -20.220755   1.000000
      2        -20.214264   1.000000
      3        -20.196744   1.000000
      4        -20.146097   1.000000
      5        -20.126582   1.000000
      6        -20.033972   1.000000
      7        -19.995028   1.000000
      8        -19.977033   1.000000
      9        -19.959223   1.000000
     10        -19.947726   1.000000
     11         -7.127823   1.000000
     12          0.120524   1.000000
     13          2.957862   1.000000
     14          3.099471   1.000000
     15          6.380079   0.000000
     16          7.118322   0.000000
     17          9.166541   0.000000
     18          9.379834   0.000000

  0.3333333E+00  0.1333333E+00  0.1243004E-14  0.7111111E-02
      1        -20.226589   1.000000
      2        -20.218119   1.000000
      3        -20.189293   1.000000
      4        -20.138572   1.000000
      5        -20.119896   1.000000
      6        -20.039296   1.000000
      7        -20.002713   1.000000
      8        -19.984764   1.000000
      9        -19.953429   1.000000
     10        -19.941905   1.000000
     11         -6.761045   1.000000
     12         -0.869972   1.000000
     13          2.582944   1.000000
     14          2.921551   1.000000
     15          6.235177   0.000000
     16          7.557676   0.000000
     17          9.314525   0.000000
     18          9.663668   0.000000

  0.4000000E+00  0.1333333E+00  0.1242147E-14  0.7111111E-02
      1        -20.230922   1.000000
      2        -20.221283   1.000000
      3        -20.181767   1.000000
      4        -20.131882   1.000000
      5        -20.116861   1.000000
      6        -20.040459   1.000000
      7        -20.009888   1.000000
      8        -19.993403   1.000000
      9        -19.948694   1.000000
     10        -19.937389   1.000000
     11         -6.340370   1.000000
     12         -1.774718   1.000000
     13          2.257914   1.000000
     14          2.827340   1.000000
     15          6.066836   0.000000
     16          7.881832   0.000000
     17          9.274596   0.000000
     18         10.191849   0.000000

  0.4666667E+00  0.1333333E+00  0.1269046E-14  0.7111111E-02
      1        -20.233424   1.000000
      2        -20.223831   1.000000
      3        -20.175006   1.000000
      4        -20.126055   1.000000
      5        -20.117738   1.000000
      6        -20.037097   1.000000
      7        -20.016612   1.000000
      8        -20.001376   1.000000
      9        -19.944827   1.000000
     10        -19.934729   1.000000
     11         -5.937481   1.000000
     12         -2.489827   1.000000
     13          2.006137   1.000000
     14          2.820352   1.000000
     15          5.942364   0.000000
     16          8.033583   0.000000
     17          9.136523   0.000000
     18         11.022410   0.000000

 -0.4666667E+00  0.1333333E+00  0.1281040E-14  0.7111111E-02
      1        -20.234154   1.000000
      2        -20.225803   1.000000
      3        -20.170572   1.000000
      4        -20.121714   1.000000
      5        -20.121369   1.000000
      6        -20.029958   1.000000
      7        -20.022591   1.000000
      8        -20.007580   1.000000
      9        -19.942030   1.000000
     10        -19.934137   1.000000
     11         -5.714612   1.000000
     12         -2.837913   1.000000
     13          1.839847   1.000000
     14          2.899364   1.000000
     15          5.881962   0.000000
     16          8.136604   0.000000
     17          8.972896   0.000000
     18         11.841338   0.000000

 -0.4000000E+00  0.1333333E+00  0.1280183E-14  0.7111111E-02
      1        -20.233034   1.000000
      2        -20.226845   1.000000
      3        -20.169644   1.000000
      4        -20.127381   1.000000
      5        -20.118538   1.000000
      6        -20.026989   1.000000
      7        -20.020124   1.000000
      8        -20.011374   1.000000
      9        -19.940286   1.000000
     10        -19.935881   1.000000
     11         -5.837195   1.000000
     12         -2.648879   1.000000
     13          1.768319   1.000000
     14          3.058910   1.000000
     15          5.889450   0.000000
     16          8.262541   0.000000
     17          8.810922   0.000000
     18         11.963058   0.000000

 -0.3333333E+00  0.1333333E+00  0.1251571E-14  0.7111111E-02
      1        -20.230110   1.000000
      2        -20.226922   1.000000
      3        -20.172737   1.000000
      4        -20.133219   1.000000
      5        -20.118621   1.000000
      6        -20.028636   1.000000
      7        -20.012713   1.000000
      8        -20.008645   1.000000
      9        -19.940037   1.000000
     10        -19.939915   1.000000
     11         -6.205467   1.000000
     12         -2.027085   1.000000
     13          1.801631   1.000000
     14          3.288531   1.000000
     15          5.958826   0.000000
     16          8.410796   0.000000
     17          8.634012   0.000000
     18         11.167547   0.000000

 -0.2666667E+00  0.1333333E+00  0.1250714E-14  0.7111111E-02
      1        -20.225733   1.000000
      2        -20.225405   1.000000
      3        -20.178825   1.000000
      4        -20.138900   1.000000
      5        -20.122478   1.000000
      6        -20.026627   1.000000
      7        -20.011573   1.000000
      8        -19.996662   1.000000
      9        -19.946273   1.000000
     10        -19.941020   1.000000
     11         -6.631145   1.000000
     12         -1.178004   1.000000
     13          1.954836   1.000000
     14          3.570104   1.000000
     15          6.071161   0.000000
     16          8.393320   0.000000
     17          8.490858   0.000000
     18         10.252776   0.000000

 -0.2000000E+00  0.1333333E+00  0.1277613E-14  0.7111111E-02
      1        -20.223044   1.000000
      2        -20.219508   1.000000
      3        -20.186432   1.000000
      4        -20.144650   1.000000
      5        -20.129912   1.000000
      6        -20.021052   1.000000
      7        -20.008345   1.000000
      8        -19.985370   1.000000
      9        -19.954448   1.000000
     10        -19.943760   1.000000
     11         -7.019140   1.000000
     12         -0.236970   1.000000
     13          2.256247   1.000000
     14          3.871687   1.000000
     15          6.174850   0.000000
     16          8.061209   0.000000
     17          8.273725   0.000000
     18          9.665898   0.000000

 -0.1333333E+00  0.1333333E+00  0.1249001E-14  0.3555556E-02
      1        -20.218747   1.000000
      2        -20.213029   1.000000
      3        -20.193440   1.000000
      4        -20.150473   1.000000
      5        -20.139364   1.000000
      6        -20.012861   1.000000
      7        -20.003022   1.000000
      8        -19.976221   1.000000
      9        -19.963389   1.000000
     10        -19.947991   1.000000
     11         -7.331084   1.000000
     12          0.676124   1.000000
     13          2.758180   1.000000
     14          4.135666   1.000000
     15          6.127284   0.000000
     16          7.710328   0.000000
     17          7.845277   0.000000
     18          9.303375   0.000000

  0.2000000E+00  0.2000000E+00  0.1253790E-14  0.1777778E-02
      1        -20.212371   1.000000
      2        -20.212370   1.000000
      3        -20.207919   1.000000
      4        -20.148926   1.000000
      5        -20.124797   1.000000
      6        -20.038736   1.000000
      7        -19.989689   1.000000
      8        -19.963594   1.000000
      9        -19.963593   1.000000
     10        -19.956550   1.000000
     11         -7.255963   1.000000
     12          0.697936   1.000000
     13          3.038317   1.000000
     14          3.038324   1.000000
     15          5.916946   0.000000
     16          7.245287   0.000000
     17          9.379545   0.000000
     18          9.379553   0.000000

  0.2666667E+00  0.2000000E+00  0.1256882E-14  0.7111111E-02
      1        -20.219177   1.000000
      2        -20.215908   1.000000
      3        -20.202198   1.000000
      4        -20.141797   1.000000
      5        -20.114161   1.000000
      6        -20.050308   1.000000
      7        -19.996915   1.000000
      8        -19.967317   1.000000
      9        -19.957940   1.000000
     10        -19.950964   1.000000
     11         -7.002679   1.000000
     12         -0.010832   1.000000
     13          2.682539   1.000000
     14          2.777808   1.000000
     15          5.917429   0.000000
     16          7.250102   0.000000
     17          9.691749   0.000000
     18          9.854253   0.000000

  0.3333333E+00  0.2000000E+00  0.1242147E-14  0.7111111E-02
      1        -20.226707   1.000000
      2        -20.219561   1.000000
      3        -20.192853   1.000000
      4        -20.133738   1.000000
      5        -20.105606   1.000000
      6        -20.058507   1.000000
      7        -20.005230   1.000000
      8        -19.977208   1.000000
      9        -19.952042   1.000000
     10        -19.942440   1.000000
     11         -6.661197   1.000000
     12         -0.839305   1.000000
     13          2.232032   1.000000
     14          2.592822   1.000000
     15          6.111968   0.000000
     16          7.392365   0.000000
     17          9.592989   0.000000
     18         10.111800   0.000000

  0.4000000E+00  0.2000000E+00  0.1255168E-14  0.7111111E-02
      1        -20.233139   1.000000
      2        -20.222818   1.000000
      3        -20.182369   1.000000
      4        -20.125863   1.000000
      5        -20.101029   1.000000
      6        -20.061926   1.000000
      7        -20.013750   1.000000
      8        -19.988661   1.000000
      9        -19.946884   1.000000
     10        -19.935247   1.000000
     11         -6.252594   1.000000
     12         -1.667282   1.000000
     13          1.794001   1.000000
     14          2.494986   1.000000
     15          6.155004   0.000000
     16          7.915478   0.000000
     17          9.513270   0.000000
     18         10.127256   0.000000

  0.4666667E+00  0.2000000E+00  0.1240434E-14  0.7111111E-02
      1        -20.237875   1.000000
      2        -20.225601   1.000000
      3        -20.172293   1.000000
      4        -20.118562   1.000000
      5        -20.101531   1.000000
      6        -20.059680   1.000000
      7        -20.022171   1.000000
      8        -19.999636   1.000000
      9        -19.942554   1.000000
     10        -19.930031   1.000000
     11         -5.828547   1.000000
     12         -2.390260   1.000000
     13          1.431471   1.000000
     14          2.488866   1.000000
     15          6.120506   0.000000
     16          8.441128   0.000000
     17          9.813490   0.000000
     18          9.985963   0.000000

 -0.4666667E+00  0.2000000E+00  0.1224672E-14  0.7111111E-02
      1        -20.240322   1.000000
      2        -20.227868   1.000000
      3        -20.164450   1.000000
      4        -20.112170   1.000000
      5        -20.106565   1.000000
      6        -20.052457   1.000000
      7        -20.030110   1.000000
      8        -20.008256   1.000000
      9        -19.939321   1.000000
     10        -19.927356   1.000000
     11         -5.519891   1.000000
     12         -2.849466   1.000000
     13          1.171148   1.000000
     14          2.573883   1.000000
     15          6.118019   0.000000
     16          8.629239   0.000000
     17          9.779080   0.000000
     18         10.689740   0.000000

 -0.4000000E+00  0.2000000E+00  0.1279327E-14  0.7111111E-02
      1        -20.240418   1.000000
      2        -20.229272   1.000000
      3        -20.160399   1.000000
      4        -20.114965   1.000000
      5        -20.107732   1.000000
      6        -20.041395   1.000000
      7        -20.036402   1.000000
      8        -20.013402   1.000000
      9        -19.937229   1.000000
     10        -19.927584   1.000000
     11         -5.533079   1.000000
     12         -2.828253   1.000000
     13          1.029507   1.000000
     14          2.744650   1.000000
     15          6.175154   0.000000
     16          8.712280   0.000000