       N       E                     dE             d eps       ncg     rms          rms(c)
DAV:   1     0.154176169072E+03    0.15418E+03   -0.14355E+04  4378   0.388E+03
DAV:   2     0.103768451972E+02   -0.14380E+03   -0.14165E+03  4330   0.502E+02
DAV:   3    -0.851861848068E+01   -0.18895E+02   -0.18744E+02  4722   0.140E+02
DAV:   4    -0.908655166375E+01   -0.56793E+00   -0.56703E+00  4944   0.282E+01
DAV:   5    -0.909571288626E+01   -0.91612E-02   -0.91579E-02  4792   0.373E+00    0.320E+00
DAV:   6    -0.903829994080E+01    0.57413E-01   -0.23038E-02  4632   0.158E+00    0.191E+00
DAV:   7    -0.900707191128E+01    0.31228E-01   -0.56480E-02  4534   0.233E+00    0.152E-01
DAV:   8    -0.900884499405E+01   -0.17731E-02   -0.64412E-03  4988   0.117E+00    0.478E-02
DAV:   9    -0.900887165395E+01   -0.26660E-04   -0.24712E-04  5566   0.307E-01    0.175E-02
DAV:  10    -0.900889568612E+01   -0.24032E-04   -0.66443E-05  4682   0.112E-01    0.620E-03
DAV:  11    -0.900889696064E+01   -0.12745E-05   -0.90165E-06  5526   0.599E-02    0.144E-03
DAV:  12    -0.900889706475E+01   -0.10411E-06   -0.40238E-07  2842   0.107E-02
   1 F= -.90088971E+01 E0= -.90088851E+01  d E =-.900890E+01
       N       E                     dE             d eps       ncg     rms          rms(c)
DAV:   1    -0.103695880357E+02   -0.13607E+01   -0.21006E+01  5710   0.103E+02    0.670E+00
DAV:   2    -0.937505876038E+01    0.99453E+00   -0.13289E+00  5600   0.223E+01    0.342E+00
DAV:   3    -0.904968044812E+01    0.32538E+00   -0.63638E-01  5676   0.141E+01    0.692E-01
DAV:   4    -0.902832996587E+01    0.21350E-01   -0.53002E-02  5466   0.464E+00    0.271E-01
DAV:   5    -0.902772354660E+01    0.60642E-03   -0.19086E-03  5438   0.531E-01    0.138E-01
DAV:   6    -0.902770611688E+01    0.17430E-04   -0.30801E-04  5454   0.355E-01    0.516E-03
DAV:   7    -0.902770815817E+01   -0.20413E-05   -0.18671E-05  6128   0.692E-02    0.556E-03
DAV:   8    -0.902770867286E+01   -0.51469E-06   -0.64972E-06  5382   0.506E-02
   2 F= -.90277087E+01 E0= -.90276585E+01  d E =-.188116E-01
       N       E                     dE             d eps       ncg     rms          rms(c)
DAV:   1    -0.914150154516E+01   -0.11379E+00   -0.15458E+00  5712   0.246E+01    0.197E+00
DAV:   2    -0.905862625984E+01    0.82875E-01   -0.12053E-01  5620   0.713E+00    0.976E-01
DAV:   3    -0.903270298066E+01    0.25923E-01   -0.42907E-02  5704   0.373E+00    0.241E-01
DAV:   4    -0.903087730017E+01    0.18257E-02   -0.49581E-03  5532   0.144E+00    0.513E-02
DAV:   5    -0.903082627214E+01    0.51028E-04   -0.32084E-04  4760   0.338E-01    0.337E-02
DAV:   6    -0.903083016367E+01   -0.38915E-05   -0.19523E-05  5408   0.844E-02    0.127E-03
DAV:   7    -0.903083093340E+01   -0.76973E-06   -0.12003E-06  2688   0.199E-02
   3 F= -.90308309E+01 E0= -.90308054E+01  d E =-.219339E-01
       N       E                     dE             d eps       ncg     rms          rms(c)
DAV:   1    -0.903430842928E+01   -0.34783E-02   -0.50995E-02  5722   0.458E+00    0.355E-01
DAV:   2    -0.903161047954E+01    0.26979E-02   -0.38255E-03  5616   0.126E+00    0.176E-01
DAV:   3    -0.903076248559E+01    0.84799E-03   -0.14509E-03  5690   0.686E-01    0.423E-02
DAV:   4    -0.903070982462E+01    0.52661E-04   -0.17136E-04  5508   0.271E-01    0.893E-03
DAV:   5    -0.903070768686E+01    0.21378E-05   -0.12706E-05  4628   0.686E-02    0.639E-03
DAV:   6    -0.903070825354E+01   -0.56667E-06   -0.79926E-07  2416   0.186E-02
   4 F= -.90307083E+01 E0= -.90306860E+01  d E =-.218112E-01
       N       E                     dE             d eps       ncg     rms          rms(c)
DAV:   1    -0.903162830022E+01   -0.92061E-03   -0.11919E-02  5722   0.223E+00    0.170E-01
DAV:   2    -0.903101074854E+01    0.61755E-03   -0.87680E-04  5614   0.600E-01    0.849E-02
DAV:   3    -0.903081150495E+01    0.19924E-03   -0.33897E-04  5678   0.331E-01    0.201E-02
DAV:   4    -0.903079416679E+01    0.17338E-04   -0.39960E-05  5500   0.131E-01    0.430E-03
DAV:   5    -0.903079411830E+01    0.48491E-07   -0.28561E-06  3220   0.337E-02    0.291E-03
DAV:   6    -0.903079393959E+01    0.17870E-06   -0.26014E-07  2160   0.864E-03
   5 F= -.90307939E+01 E0= -.90307701E+01  d E =-.218969E-01
