 vasp.6.3.2 27Jun22 (build Nov 28 2025 11:56:12) complex                         
 executed on             LinuxGNU date 2026.01.20  13:36:21
 running    2 mpi-ranks, with    1 threads/rank
 distrk:  each k-point on    2 cores,    1 groups
 distr:  one band on NCORE=   1 cores,    2 groups


--------------------------------------------------------------------------------------------------------


 INCAR:
   ISTART = 0            (not Read existing wavefunction, if there)
   ISPIN = 1            (Non-Spin polarised DFT)
   LREAL = .FALSE.       (Projection operators: automatic)
   ENCUT = 450          (Cut-off energy for plane wave basis set, in eV)
   PREC = Accurate     (Precision level: Normal or Accurate, set Accurate when perform structure lattice relaxation calculation)
   LWAVE = .FALSE.        (Write WAVECAR or not)
   LCHARG = .FALSE.        (Write CHGCAR or not)
   ADDGRID = .TRUE.        (Increase grid, helps GGA convergence)
   ALGO = N             (Electronic minimization algorithm: Normal, Fast, Damped, All, VeryFast)
   ISMEAR = 0            (Gaussian smearing, metals:1)
   SIGMA = 0.05         (Smearing value in eV, metals:0.2)
   NELM = 90           (Max electronic SCF steps)
   NELMIN = 6            (Min electronic SCF steps)
   EDIFF = 1E-06        (SCF energy convergence, in eV)
   NSW = 100          (Max ionic steps)
   IBRION = 2            (Algorithm: 0-MD, 1-Quasi-New, 2-CG)
   ISIF = 3            (Stress/relaxation: 2-Ions, 3-Shape/Ions/V, 4-Shape/Ions)
   EDIFFG = -2E-02        (Ionic convergence, eV/AA)

 POTCAR:    PAW_PBE Ge_d 03Jul2007                
 POTCAR:    PAW_PBE Ge_d 03Jul2007                
   VRHFIN =Ge: 3d4s4p                                                                               
   LEXCH  = PE                                                                                      
   EATOM  =  2596.2402 eV,  190.8183 Ry                                                             
                                                                                                    
   TITEL  = PAW_PBE Ge_d 03Jul2007                                                                  
   LULTRA =        F    use ultrasoft PP ?                                                          
   IUNSCR =        1    unscreen: 0-lin 1-nonlin 2-no                                               
   RPACOR =    2.000    partial core radius                                                         
   POMASS =   72.610; ZVAL   =   14.000    mass and valenz                                          
   RCORE  =    2.300    outmost cutoff radius                                                       
   RWIGS  =    2.300; RWIGS  =    1.217    wigner-seitz radius (au A)                               
   ENMAX  =  310.294; ENMIN  =  232.720 eV                                                          
   ICORE  =        3    local potential                                                             
   LCOR   =        T    correct aug charges                                                         
   LPAW   =        T    paw PP                                                                      
   EAUG   =  531.356                                                                                
   DEXC   =    0.000                                                                                
   RMAX   =    2.342    core radius for proj-oper                                                   
   RAUG   =    1.300    factor for augmentation sphere                                              
   RDEP   =    2.318    radius for radial grids                                                     
   RDEPT  =    1.783    core radius for aug-charge                                                  
                                                                                                    
   Atomic configuration                                                                             
    9 entries                                                                                       
     n  l   j            E        occ.                                                              
     1  0  0.50    -10959.8463   2.0000                                                             
     2  0  0.50     -1371.6056   2.0000                                                             
     2  1  1.50     -1198.4791   6.0000                                                             
     3  0  0.50      -168.4733   2.0000                                                             
     3  1  1.50      -115.6019   6.0000                                                             
     3  2  2.50       -29.3106  10.0000                                                             
     4  0  0.50       -11.7309   2.0000                                                             
     4  1  0.50        -3.8952   2.0000                                                             
     4  3  2.50        -4.0817   0.0000                                                             
   Description                                                                                      
     l       E           TYP  RCUT    TYP  RCUT                                                     
     2    -29.3105938     23  2.200                                                                 
     2    -13.6058260     23  2.200                                                                 
     0    -11.7309493     23  2.300                                                                 
     0     -7.4578696     23  2.300                                                                 
     1     -3.8952261     23  2.300                                                                 
     1      6.1178114     23  2.300                                                                 
     3     -1.3605826     23  2.300                                                                 
  local pseudopotential read in
  partial core-charges read in
  partial kinetic energy density read in
  atomic valenz-charges read in
  non local Contribution for L=           2  read in
    real space projection operators read in
  non local Contribution for L=           2  read in
    real space projection operators read in
  non local Contribution for L=           0  read in
    real space projection operators read in
  non local Contribution for L=           0  read in
    real space projection operators read in
  non local Contribution for L=           1  read in
    real space projection operators read in
  non local Contribution for L=           1  read in
    real space projection operators read in
    PAW grid and wavefunctions read in

   number of l-projection  operators is LMAX  =           6
   number of lm-projection operators is LMMAX =          18

  PAW_PBE Ge_d 03Jul2007                :
 energy of atom  1       EATOM=-2596.2402
 kinetic energy error for atom=    0.0077 (will be added to EATOM!!)


 POSCAR: cubic diamond Ge
  positions in direct lattice
  No initial velocities read in
 exchange correlation table for  LEXCH =        8
   RHO(1)=    0.500       N(1)  =     2000
   RHO(2)=  100.500       N(2)  =     4000



--------------------------------------------------------------------------------------------------------


 ion  position               nearest neighbor table
   1  0.875  0.875  0.875-   2 2.45   2 2.45   2 2.45   2 2.45
   2  0.125  0.125  0.125-   1 2.45   1 2.45   1 2.45   1 2.45

  LATTYP: Found a face centered cubic cell.
 ALAT       =     5.6575400000
  
  Lattice vectors:
  
 A1 = (   0.0000000000,   2.8287700000,   2.8287700000)
 A2 = (   2.8287700000,   0.0000000000,   2.8287700000)
 A3 = (   2.8287700000,   2.8287700000,   0.0000000000)


Analysis of symmetry for initial positions (statically):
=====================================================================
 Subroutine PRICEL returns:
 Original cell was already a primitive cell.
 

 Routine SETGRP: Setting up the symmetry group for a 
 face centered cubic supercell.


 Subroutine GETGRP returns: Found 48 space group operations
 (whereof 12 operations were pure point group operations)
 out of a pool of 48 trial point group operations.


The static configuration has the point symmetry D_3d.
 The point group associated with its full space group is O_h .


Analysis of symmetry for dynamics (positions and initial velocities):
=====================================================================
 Subroutine PRICEL returns:
 Original cell was already a primitive cell.
 

 Routine SETGRP: Setting up the symmetry group for a 
 face centered cubic supercell.


 Subroutine GETGRP returns: Found 48 space group operations
 (whereof 12 operations were pure point group operations)
 out of a pool of 48 trial point group operations.


The dynamic configuration has the point symmetry D_3d.
 The point group associated with its full space group is O_h .


 Subroutine INISYM returns: Found 48 space group operations
 (whereof 12 operations are pure point group operations),
 and found     1 'primitive' translations


----------------------------------------------------------------------------------------

                                     Primitive cell                                     

  volume of cell :      45.2713

  direct lattice vectors                    reciprocal lattice vectors
     0.000000000  2.828770000  2.828770000    -0.176755268  0.176755268  0.176755268
     2.828770000  0.000000000  2.828770000     0.176755268 -0.176755268  0.176755268
     2.828770000  2.828770000  0.000000000     0.176755268  0.176755268 -0.176755268

  length of vectors
     4.000484899  4.000484899  4.000484899     0.306149105  0.306149105  0.306149105

  position of ions in fractional coordinates (direct lattice)
     0.875000000  0.875000000  0.875000000
     0.125000000  0.125000000  0.125000000

  ion indices of the primitive-cell ions
   primitive index   ion index
                 1           1
                 2           2

----------------------------------------------------------------------------------------



 KPOINTS: K-Spacing Value to Generate K-Mesh: 0.02

Automatic generation of k-mesh.
 Grid dimensions read from file:
 generate k-points for:   15   15   15

 Generating k-lattice:

  Cartesian coordinates                     Fractional coordinates (reciprocal lattice)
    -0.011783685  0.011783685  0.011783685     0.066666667 -0.000000000  0.000000000
     0.011783685 -0.011783685  0.011783685    -0.000000000  0.066666667 -0.000000000
     0.011783685  0.011783685 -0.011783685     0.000000000  0.000000000  0.066666667

  Length of vectors
     0.020409940  0.020409940  0.020409940

  Shift w.r.t. Gamma in fractional coordinates (k-lattice)
     0.000000000  0.000000000  0.000000000

 
 Subroutine IBZKPT returns following result:
 ===========================================
 
 Found    120 irreducible k-points:
 
 Following reciprocal coordinates:
            Coordinates               Weight
  0.000000  0.000000  0.000000      1.000000
  0.066667  0.000000  0.000000      8.000000
  0.133333  0.000000  0.000000      8.000000
  0.200000  0.000000  0.000000      8.000000
  0.266667  0.000000  0.000000      8.000000
  0.333333  0.000000  0.000000      8.000000
  0.400000  0.000000  0.000000      8.000000
  0.466667  0.000000  0.000000      8.000000
  0.066667  0.066667  0.000000      6.000000
  0.133333  0.066667  0.000000     24.000000
  0.200000  0.066667  0.000000     24.000000
  0.266667  0.066667  0.000000     24.000000
  0.333333  0.066667  0.000000     24.000000
  0.400000  0.066667  0.000000     24.000000
  0.466667  0.066667  0.000000     24.000000
 -0.466667  0.066667  0.000000     24.000000
 -0.400000  0.066667  0.000000     24.000000
 -0.333333  0.066667  0.000000     24.000000
 -0.266667  0.066667  0.000000     24.000000
 -0.200000  0.066667  0.000000     24.000000
 -0.133333  0.066667  0.000000     24.000000
 -0.066667  0.066667  0.000000     12.000000
  0.133333  0.133333  0.000000      6.000000
  0.200000  0.133333  0.000000     24.000000
  0.266667  0.133333  0.000000     24.000000
  0.333333  0.133333  0.000000     24.000000
  0.400000  0.133333  0.000000     24.000000
  0.466667  0.133333  0.000000     24.000000
 -0.466667  0.133333  0.000000     24.000000
 -0.400000  0.133333  0.000000     24.000000
 -0.333333  0.133333  0.000000     24.000000
 -0.266667  0.133333  0.000000     24.000000
 -0.200000  0.133333  0.000000     24.000000
 -0.133333  0.133333  0.000000     12.000000
  0.200000  0.200000  0.000000      6.000000
  0.266667  0.200000  0.000000     24.000000
  0.333333  0.200000  0.000000     24.000000
  0.400000  0.200000  0.000000     24.000000
  0.466667  0.200000  0.000000     24.000000
 -0.466667  0.200000  0.000000     24.000000
 -0.400000  0.200000  0.000000     24.000000
 -0.333333  0.200000  0.000000     24.000000
 -0.266667  0.200000  0.000000     24.000000
 -0.200000  0.200000  0.000000     12.000000
  0.266667  0.266667  0.000000      6.000000
  0.333333  0.266667  0.000000     24.000000
  0.400000  0.266667  0.000000     24.000000
  0.466667  0.266667  0.000000     24.000000
 -0.466667  0.266667  0.000000     24.000000
 -0.400000  0.266667  0.000000     24.000000
 -0.333333  0.266667  0.000000     24.000000
 -0.266667  0.266667  0.000000     12.000000
  0.333333  0.333333  0.000000      6.000000
  0.400000  0.333333  0.000000     24.000000
  0.466667  0.333333  0.000000     24.000000
 -0.466667  0.333333  0.000000     24.000000
 -0.400000  0.333333  0.000000     24.000000
 -0.333333  0.333333  0.000000     12.000000
  0.400000  0.400000  0.000000      6.000000
  0.466667  0.400000  0.000000     24.000000
 -0.466667  0.400000  0.000000     24.000000
 -0.400000  0.400000  0.000000     12.000000
  0.466667  0.466667  0.000000      6.000000
 -0.466667  0.466667  0.000000     12.000000
  0.200000  0.133333  0.066667     24.000000
  0.266667  0.133333  0.066667     48.000000
  0.333333  0.133333  0.066667     48.000000
  0.400000  0.133333  0.066667     48.000000
  0.466667  0.133333  0.066667     48.000000
 -0.466667  0.133333  0.066667     48.000000
  0.266667  0.200000  0.066667     24.000000
  0.333333  0.200000  0.066667     48.000000
  0.400000  0.200000  0.066667     48.000000
  0.466667  0.200000  0.066667     48.000000
 -0.466667  0.200000  0.066667     48.000000
 -0.400000  0.200000  0.066667     48.000000
 -0.333333  0.200000  0.066667     48.000000
 -0.266667  0.200000  0.066667     48.000000
 -0.200000  0.200000  0.066667     48.000000
 -0.133333  0.200000  0.066667     24.000000
  0.333333  0.266667  0.066667     24.000000
  0.400000  0.266667  0.066667     48.000000
  0.466667  0.266667  0.066667     48.000000
 -0.466667  0.266667  0.066667     48.000000
 -0.400000  0.266667  0.066667     48.000000
 -0.333333  0.266667  0.066667     48.000000
 -0.266667  0.266667  0.066667     48.000000
 -0.200000  0.266667  0.066667     24.000000
  0.400000  0.333333  0.066667     24.000000
  0.466667  0.333333  0.066667     48.000000
 -0.466667  0.333333  0.066667     48.000000
 -0.400000  0.333333  0.066667     48.000000
 -0.333333  0.333333  0.066667     48.000000
 -0.266667  0.333333  0.066667     24.000000
  0.466667  0.400000  0.066667     24.000000
 -0.466667  0.400000  0.066667     48.000000
 -0.400000  0.400000  0.066667     48.000000
 -0.333333  0.400000  0.066667     24.000000
 -0.466667  0.466667  0.066667     24.000000
 -0.400000  0.466667  0.066667     24.000000
  0.400000  0.266667  0.133333     24.000000
  0.466667  0.266667  0.133333     48.000000
 -0.466667  0.266667  0.133333     48.000000
 -0.400000  0.266667  0.133333     48.000000
  0.466667  0.333333  0.133333     24.000000
 -0.466667  0.333333  0.133333     48.000000
 -0.400000  0.333333  0.133333     48.000000
 -0.333333  0.333333  0.133333     48.000000
 -0.266667  0.333333  0.133333     48.000000
 -0.200000  0.333333  0.133333     24.000000
 -0.466667  0.400000  0.133333     24.000000
 -0.400000  0.400000  0.133333     48.000000
 -0.333333  0.400000  0.133333     48.000000
 -0.266667  0.400000  0.133333     24.000000
 -0.400000  0.466667  0.133333     24.000000
 -0.333333  0.466667  0.133333     24.000000
 -0.400000  0.400000  0.200000     24.000000
 -0.333333  0.400000  0.200000     48.000000
 -0.333333  0.466667  0.200000     24.000000
 -0.266667  0.466667  0.200000     24.000000
 
 Following cartesian coordinates:
            Coordinates               Weight
  0.000000  0.000000  0.000000      1.000000
 -0.066667  0.066667  0.066667      8.000000
 -0.133333  0.133333  0.133333      8.000000
 -0.200000  0.200000  0.200000      8.000000
 -0.266667  0.266667  0.266667      8.000000
 -0.333333  0.333333  0.333333      8.000000
 -0.400000  0.400000  0.400000      8.000000
 -0.466667  0.466667  0.466667      8.000000
  0.000000  0.000000  0.133333      6.000000
 -0.066667  0.066667  0.200000     24.000000
 -0.133333  0.133333  0.266667     24.000000
 -0.200000  0.200000  0.333333     24.000000
 -0.266667  0.266667  0.400000     24.000000
 -0.333333  0.333333  0.466667     24.000000
 -0.400000  0.400000  0.533333     24.000000
  0.533333 -0.533333 -0.400000     24.000000
  0.466667 -0.466667 -0.333333     24.000000
  0.400000 -0.400000 -0.266667     24.000000
  0.333333 -0.333333 -0.200000     24.000000
  0.266667 -0.266667 -0.133333     24.000000
  0.200000 -0.200000 -0.066667     24.000000
  0.133333 -0.133333  0.000000     12.000000
  0.000000  0.000000  0.266667      6.000000
 -0.066667  0.066667  0.333333     24.000000
 -0.133333  0.133333  0.400000     24.000000
 -0.200000  0.200000  0.466667     24.000000
 -0.266667  0.266667  0.533333     24.000000
 -0.333333  0.333333  0.600000     24.000000
  0.600000 -0.600000 -0.333333     24.000000
  0.533333 -0.533333 -0.266667     24.000000
  0.466667 -0.466667 -0.200000     24.000000
  0.400000 -0.400000 -0.133333     24.000000
  0.333333 -0.333333 -0.066667     24.000000
  0.266667 -0.266667  0.000000     12.000000
  0.000000  0.000000  0.400000      6.000000
 -0.066667  0.066667  0.466667     24.000000
 -0.133333  0.133333  0.533333     24.000000
 -0.200000  0.200000  0.600000     24.000000
 -0.266667  0.266667  0.666667     24.000000
  0.666667 -0.666667 -0.266667     24.000000
  0.600000 -0.600000 -0.200000     24.000000
  0.533333 -0.533333 -0.133333     24.000000
  0.466667 -0.466667 -0.066667     24.000000
  0.400000 -0.400000  0.000000     12.000000
  0.000000  0.000000  0.533333      6.000000
 -0.066667  0.066667  0.600000     24.000000
 -0.133333  0.133333  0.666667     24.000000
 -0.200000  0.200000  0.733333     24.000000
  0.733333 -0.733333 -0.200000     24.000000
  0.666667 -0.666667 -0.133333     24.000000
  0.600000 -0.600000 -0.066667     24.000000
  0.533333 -0.533333  0.000000     12.000000
  0.000000  0.000000  0.666667      6.000000
 -0.066667  0.066667  0.733333     24.000000
 -0.133333  0.133333  0.800000     24.000000
  0.800000 -0.800000 -0.133333     24.000000
  0.733333 -0.733333 -0.066667     24.000000
  0.666667 -0.666667  0.000000     12.000000
  0.000000  0.000000  0.800000      6.000000
 -0.066667  0.066667  0.866667     24.000000
  0.866667 -0.866667 -0.066667     24.000000
  0.800000 -0.800000  0.000000     12.000000
  0.000000  0.000000  0.933333      6.000000
  0.933333 -0.933333  0.000000     12.000000
  0.000000  0.133333  0.266667     24.000000
 -0.066667  0.200000  0.333333     48.000000
 -0.133333  0.266667  0.400000     48.000000
 -0.200000  0.333333  0.466667     48.000000
 -0.266667  0.400000  0.533333     48.000000
  0.666667 -0.533333 -0.400000     48.000000
  0.000000  0.133333  0.400000     24.000000
 -0.066667  0.200000  0.466667     48.000000
 -0.133333  0.266667  0.533333     48.000000
 -0.200000  0.333333  0.600000     48.000000
  0.733333 -0.600000 -0.333333     48.000000
  0.666667 -0.533333 -0.266667     48.000000
  0.600000 -0.466667 -0.200000     48.000000
  0.533333 -0.400000 -0.133333     48.000000
  0.466667 -0.333333 -0.066667     48.000000
  0.400000 -0.266667  0.000000     24.000000
  0.000000  0.133333  0.533333     24.000000
 -0.066667  0.200000  0.600000     48.000000
 -0.133333  0.266667  0.666667     48.000000
  0.800000 -0.666667 -0.266667     48.000000
  0.733333 -0.600000 -0.200000     48.000000
  0.666667 -0.533333 -0.133333     48.000000
  0.600000 -0.466667 -0.066667     48.000000
  0.533333 -0.400000 -0.000000     24.000000
  0.000000  0.133333  0.666667     24.000000
 -0.066667  0.200000  0.733333     48.000000
  0.866667 -0.733333 -0.200000     48.000000
  0.800000 -0.666667 -0.133333     48.000000
  0.733333 -0.600000 -0.066667     48.000000
  0.666667 -0.533333  0.000000     24.000000
  0.000000  0.133333  0.800000     24.000000
  0.933333 -0.800000 -0.133333     48.000000
  0.866667 -0.733333 -0.066667     48.000000
  0.800000 -0.666667 -0.000000     24.000000
  1.000000 -0.866667 -0.066667     24.000000
  0.933333 -0.800000  0.000000     24.000000
  0.000000  0.266667  0.533333     24.000000
 -0.066667  0.333333  0.600000     48.000000
  0.866667 -0.600000 -0.333333     48.000000
  0.800000 -0.533333 -0.266667     48.000000
  0.000000  0.266667  0.666667     24.000000
  0.933333 -0.666667 -0.266667     48.000000
  0.866667 -0.600000 -0.200000     48.000000
  0.800000 -0.533333 -0.133333     48.000000
  0.733333 -0.466667 -0.066667     48.000000
  0.666667 -0.400000  0.000000     24.000000
  1.000000 -0.733333 -0.200000     24.000000
  0.933333 -0.666667 -0.133333     48.000000
  0.866667 -0.600000 -0.066667     48.000000
  0.800000 -0.533333  0.000000     24.000000
  1.000000 -0.733333 -0.066667     24.000000
  0.933333 -0.666667  0.000000     24.000000
  1.000000 -0.600000 -0.200000     24.000000
  0.933333 -0.533333 -0.133333     48.000000
  1.000000 -0.600000 -0.066667     24.000000
  0.933333 -0.533333  0.000000     24.000000
 


--------------------------------------------------------------------------------------------------------




 Dimension of arrays:
   k-points           NKPTS =    120   k-points in BZ     NKDIM =    120   number of bands    NBANDS=     18
   number of dos      NEDOS =    301   number of ions     NIONS =      2
   non local maximal  LDIM  =      6   non local SUM 2l+1 LMDIM =     18
   total plane-waves  NPLWV =  21952
   max r-space proj   IRMAX =      1   max aug-charges    IRDMAX= 130646
   dimension x,y,z NGX =    28 NGY =   28 NGZ =   28
   dimension x,y,z NGXF=    56 NGYF=   56 NGZF=   56
   support grid    NGXF=   112 NGYF=  112 NGZF=  112
   ions per type =               2
   NGX,Y,Z   is equivalent  to a cutoff of  11.64, 11.64, 11.64 a.u.
   NGXF,Y,Z  is equivalent  to a cutoff of  23.27, 23.27, 23.27 a.u.

 SYSTEM =  unknown system                          
 POSCAR =  cubic diamond Ge                        

 Startparameter for this run:
   NWRITE =      2    write-flag & timer
   PREC   = accura    normal or accurate (medium, high low for compatibility)
   ISTART =      0    job   : 0-new  1-cont  2-samecut
   ICHARG =      2    charge: 1-file 2-atom 10-const
   ISPIN  =      1    spin polarized calculation?
   LNONCOLLINEAR =      F non collinear calculations
   LSORBIT =      F    spin-orbit coupling
   INIWAV =      1    electr: 0-lowe 1-rand  2-diag
   LASPH  =      F    aspherical Exc in radial PAW
 Electronic Relaxation 1
   ENCUT  =  450.0 eV  33.07 Ry    5.75 a.u.   6.92  6.92  6.92*2*pi/ulx,y,z
   ENINI  =  450.0     initial cutoff
   ENAUG  =  531.4 eV  augmentation charge cutoff
   NELM   =     90;   NELMIN=  6; NELMDL= -5     # of ELM steps 
   EDIFF  = 0.1E-05   stopping-criterion for ELM
   LREAL  =      F    real-space projection
   NLSPLINE    = F    spline interpolate recip. space projectors
   LCOMPAT=      F    compatible to vasp.4.4
   GGA_COMPAT  = T    GGA compatible to vasp.4.4-vasp.4.6
   LMAXPAW     = -100 max onsite density
   LMAXMIX     =    2 max onsite mixed and CHGCAR
   VOSKOWN=      0    Vosko Wilk Nusair interpolation
   ROPT   =    0.00000
 Ionic relaxation
   EDIFFG = -.2E-01   stopping-criterion for IOM
   NSW    =    100    number of steps for IOM
   NBLOCK =      1;   KBLOCK =    100    inner block; outer block 
   IBRION =      2    ionic relax: 0-MD 1-quasi-New 2-CG
   NFREE  =      1    steps in history (QN), initial steepest desc. (CG)
   ISIF   =      3    stress and relaxation
   IWAVPR =     11    prediction:  0-non 1-charg 2-wave 3-comb
   ISYM   =      2    0-nonsym 1-usesym 2-fastsym
   LCORR  =      T    Harris-Foulkes like correction to forces

   POTIM  = 0.5000    time-step for ionic-motion
   TEIN   =    0.0    initial temperature
   TEBEG  =    0.0;   TEEND  =   0.0 temperature during run
   SMASS  =  -3.00    Nose mass-parameter (am)
   estimated Nose-frequenzy (Omega)   =  0.10E-29 period in steps = 0.13E+47 mass=  -0.366E-27a.u.
   SCALEE = 1.0000    scale energy and forces
   NPACO  =    256;   APACO  = 10.0  distance and # of slots for P.C.
   PSTRESS=    0.0 pullay stress

  Mass of Ions in am
   POMASS =  72.61
  Ionic Valenz
   ZVAL   =  14.00
  Atomic Wigner-Seitz radii
   RWIGS  =  -1.00
  virtual crystal weights 
   VCA    =   1.00
   NELECT =      28.0000    total number of electrons
   NUPDOWN=      -1.0000    fix difference up-down

 DOS related values:
   EMIN   =  10.00;   EMAX   =-10.00  energy-range for DOS
   EFERMI =   0.00
   ISMEAR =     0;   SIGMA  =   0.05  broadening in eV -4-tet -1-fermi 0-gaus

 Electronic relaxation 2 (details)
   IALGO  =     38    algorithm
   LDIAG  =      T    sub-space diagonalisation (order eigenvalues)
   LSUBROT=      F    optimize rotation matrix (better conditioning)
   TURBO    =      0    0=normal 1=particle mesh
   IRESTART =      0    0=no restart 2=restart with 2 vectors
   NREBOOT  =      0    no. of reboots
   NMIN     =      0    reboot dimension
   EREF     =   0.00    reference energy to select bands
   IMIX   =      4    mixing-type and parameters
     AMIX     =   0.40;   BMIX     =  1.00
     AMIX_MAG =   1.60;   BMIX_MAG =  1.00
     AMIN     =   0.10
     WC   =   100.;   INIMIX=   1;  MIXPRE=   1;  MAXMIX= -45

 Intra band minimization:
   WEIMIN = 0.0010     energy-eigenvalue tresh-hold
   EBREAK =  0.14E-07  absolut break condition
   DEPER  =   0.30     relativ break condition  

   TIME   =   0.40     timestep for ELM

  volume/ion in A,a.u.               =      22.64       152.75
  Fermi-wavevector in a.u.,A,eV,Ry     =   1.394825  2.635838 26.470653  1.945538
  Thomas-Fermi vector in A             =   2.518337

 Write flags
   LWAVE        =      F    write WAVECAR
   LDOWNSAMPLE  =      F    k-point downsampling of WAVECAR
   LCHARG       =      F    write CHGCAR
   LVTOT        =      F    write LOCPOT, total local potential
   LVHAR        =      F    write LOCPOT, Hartree potential only
   LELF         =      F    write electronic localiz. function (ELF)
   LORBIT       =      0    0 simple, 1 ext, 2 COOP (PROOUT), +10 PAW based schemes


 Dipole corrections
   LMONO  =      F    monopole corrections only (constant potential shift)
   LDIPOL =      F    correct potential (dipole corrections)
   IDIPOL =      0    1-x, 2-y, 3-z, 4-all directions 
   EPSILON=  1.0000000 bulk dielectric constant

 Exchange correlation treatment:
   GGA     =    --    GGA type
   LEXCH   =     8    internal setting for exchange type
   LIBXC   =     F    Libxc                    
   VOSKOWN =     0    Vosko Wilk Nusair interpolation
   LHFCALC =     F    Hartree Fock is set to
   LHFONE  =     F    Hartree Fock one center treatment
   AEXX    =    0.0000 exact exchange contribution

 Linear response parameters
   LEPSILON=     F    determine dielectric tensor
   LRPA    =     F    only Hartree local field effects (RPA)
   LNABLA  =     F    use nabla operator in PAW spheres
   LVEL    =     F    velocity operator in full k-point grid
   CSHIFT  =0.1000    complex shift for real part using Kramers Kronig
   OMEGAMAX=  -1.0    maximum frequency
   DEG_THRESHOLD= 0.2000000E-02 threshold for treating states as degnerate
   RTIME   =   -0.100 relaxation time in fs
  (WPLASMAI=    0.000 imaginary part of plasma frequency in eV, 0.658/RTIME)
   DFIELD  = 0.0000000 0.0000000 0.0000000 field for delta impulse in time

  Optional k-point grid parameters
   LKPOINTS_OPT  =     F    use optional k-point grid
   KPOINTS_OPT_MODE=     1    mode for optional k-point grid

 Orbital magnetization related:
   ORBITALMAG=     F  switch on orbital magnetization
   LCHIMAG   =     F  perturbation theory with respect to B field
   DQ        =  0.001000  dq finite difference perturbation B field
   LLRAUG    =     F  two centre corrections for induced B field



--------------------------------------------------------------------------------------------------------


 conjugate gradient relaxation of ions
 charge density and potential will be updated during run
 non-spin polarized calculation
 Variant of blocked Davidson
 Davidson routine will perform the subspace rotation
 perform sub-space diagonalisation
    after iterative eigenvector-optimisation
 modified Broyden-mixing scheme, WC =      100.0
 initial mixing is a Kerker type mixing with AMIX =  0.4000 and BMIX =      1.0000
 Hartree-type preconditioning will be used
 using additional bands            4
 reciprocal scheme for non local part
 use partial core corrections
 calculate Harris-corrections to forces   (improved forces if not selfconsistent)
 use gradient corrections 
 use of overlap-Matrix (Vanderbilt PP)
 Gauss-broadening in eV      SIGMA  =   0.05


--------------------------------------------------------------------------------------------------------


  energy-cutoff  :      450.00
  volume of cell :       45.27
      direct lattice vectors                 reciprocal lattice vectors
     0.000000000  2.828770000  2.828770000    -0.176755268  0.176755268  0.176755268
     2.828770000  0.000000000  2.828770000     0.176755268 -0.176755268  0.176755268
     2.828770000  2.828770000  0.000000000     0.176755268  0.176755268 -0.176755268

  length of vectors
     4.000484899  4.000484899  4.000484899     0.306149105  0.306149105  0.306149105



 k-points in units of 2pi/SCALE and weight: K-Spacing Value to Generate K-Mesh: 0.02
   0.00000000  0.00000000  0.00000000       0.000
  -0.06666667  0.06666667  0.06666667       0.002
  -0.13333333  0.13333333  0.13333333       0.002
  -0.20000000  0.20000000  0.20000000       0.002
  -0.26666667  0.26666667  0.26666667       0.002
  -0.33333333  0.33333333  0.33333333       0.002
  -0.40000000  0.40000000  0.40000000       0.002
  -0.46666667  0.46666667  0.46666667       0.002
   0.00000000  0.00000000  0.13333333       0.002
  -0.06666667  0.06666667  0.20000000       0.007
  -0.13333333  0.13333333  0.26666667       0.007
  -0.20000000  0.20000000  0.33333333       0.007
  -0.26666667  0.26666667  0.40000000       0.007
  -0.33333333  0.33333333  0.46666667       0.007
  -0.40000000  0.40000000  0.53333333       0.007
   0.53333333 -0.53333333 -0.40000000       0.007
   0.46666667 -0.46666667 -0.33333333       0.007
   0.40000000 -0.40000000 -0.26666667       0.007
   0.33333333 -0.33333333 -0.20000000       0.007
   0.26666667 -0.26666667 -0.13333333       0.007
   0.20000000 -0.20000000 -0.06666667       0.007
   0.13333333 -0.13333333  0.00000000       0.004
   0.00000000  0.00000000  0.26666667       0.002
  -0.06666667  0.06666667  0.33333333       0.007
  -0.13333333  0.13333333  0.40000000       0.007
  -0.20000000  0.20000000  0.46666667       0.007
  -0.26666667  0.26666667  0.53333333       0.007
  -0.33333333  0.33333333  0.60000000       0.007
   0.60000000 -0.60000000 -0.33333333       0.007
   0.53333333 -0.53333333 -0.26666667       0.007
   0.46666667 -0.46666667 -0.20000000       0.007
   0.40000000 -0.40000000 -0.13333333       0.007
   0.33333333 -0.33333333 -0.06666667       0.007
   0.26666667 -0.26666667  0.00000000       0.004
   0.00000000  0.00000000  0.40000000       0.002
  -0.06666667  0.06666667  0.46666667       0.007
  -0.13333333  0.13333333  0.53333333       0.007
  -0.20000000  0.20000000  0.60000000       0.007
  -0.26666667  0.26666667  0.66666667       0.007
   0.66666667 -0.66666667 -0.26666667       0.007
   0.60000000 -0.60000000 -0.20000000       0.007
   0.53333333 -0.53333333 -0.13333333       0.007
   0.46666667 -0.46666667 -0.06666667       0.007
   0.40000000 -0.40000000  0.00000000       0.004
   0.00000000  0.00000000  0.53333333       0.002
  -0.06666667  0.06666667  0.60000000       0.007
  -0.13333333  0.13333333  0.66666667       0.007
  -0.20000000  0.20000000  0.73333333       0.007
   0.73333333 -0.73333333 -0.20000000       0.007
   0.66666667 -0.66666667 -0.13333333       0.007
   0.60000000 -0.60000000 -0.06666667       0.007
   0.53333333 -0.53333333  0.00000000       0.004
   0.00000000  0.00000000  0.66666667       0.002
  -0.06666667  0.06666667  0.73333333       0.007
  -0.13333333  0.13333333  0.80000000       0.007
   0.80000000 -0.80000000 -0.13333333       0.007
   0.73333333 -0.73333333 -0.06666667       0.007
   0.66666667 -0.66666667  0.00000000       0.004
   0.00000000  0.00000000  0.80000000       0.002
  -0.06666667  0.06666667  0.86666667       0.007
   0.86666667 -0.86666667 -0.06666667       0.007
   0.80000000 -0.80000000  0.00000000       0.004
   0.00000000  0.00000000  0.93333333       0.002
   0.93333333 -0.93333333  0.00000000       0.004
   0.00000000  0.13333333  0.26666667       0.007
  -0.06666667  0.20000000  0.33333333       0.014
  -0.13333333  0.26666667  0.40000000       0.014
  -0.20000000  0.33333333  0.46666667       0.014
  -0.26666667  0.40000000  0.53333333       0.014
   0.66666667 -0.53333333 -0.40000000       0.014
   0.00000000  0.13333333  0.40000000       0.007
  -0.06666667  0.20000000  0.46666667       0.014
  -0.13333333  0.26666667  0.53333333       0.014
  -0.20000000  0.33333333  0.60000000       0.014
   0.73333333 -0.60000000 -0.33333333       0.014
   0.66666667 -0.53333333 -0.26666667       0.014
   0.60000000 -0.46666667 -0.20000000       0.014
   0.53333333 -0.40000000 -0.13333333       0.014
   0.46666667 -0.33333333 -0.06666667       0.014
   0.40000000 -0.26666667  0.00000000       0.007
   0.00000000  0.13333333  0.53333333       0.007
  -0.06666667  0.20000000  0.60000000       0.014
  -0.13333333  0.26666667  0.66666667       0.014
   0.80000000 -0.66666667 -0.26666667       0.014
   0.73333333 -0.60000000 -0.20000000       0.014
   0.66666667 -0.53333333 -0.13333333       0.014
   0.60000000 -0.46666667 -0.06666667       0.014
   0.53333333 -0.40000000 -0.00000000       0.007
   0.00000000  0.13333333  0.66666667       0.007
  -0.06666667  0.20000000  0.73333333       0.014
   0.86666667 -0.73333333 -0.20000000       0.014
   0.80000000 -0.66666667 -0.13333333       0.014
   0.73333333 -0.60000000 -0.06666667       0.014
   0.66666667 -0.53333333  0.00000000       0.007
   0.00000000  0.13333333  0.80000000       0.007
   0.93333333 -0.80000000 -0.13333333       0.014
   0.86666667 -0.73333333 -0.06666667       0.014
   0.80000000 -0.66666667 -0.00000000       0.007
   1.00000000 -0.86666667 -0.06666667       0.007
   0.93333333 -0.80000000  0.00000000       0.007
   0.00000000  0.26666667  0.53333333       0.007
  -0.06666667  0.33333333  0.60000000       0.014
   0.86666667 -0.60000000 -0.33333333       0.014
   0.80000000 -0.53333333 -0.26666667       0.014
   0.00000000  0.26666667  0.66666667       0.007
   0.93333333 -0.66666667 -0.26666667       0.014
   0.86666667 -0.60000000 -0.20000000       0.014
   0.80000000 -0.53333333 -0.13333333       0.014
   0.73333333 -0.46666667 -0.06666667       0.014
   0.66666667 -0.40000000  0.00000000       0.007
   1.00000000 -0.73333333 -0.20000000       0.007
   0.93333333 -0.66666667 -0.13333333       0.014
   0.86666667 -0.60000000 -0.06666667       0.014
   0.80000000 -0.53333333  0.00000000       0.007
   1.00000000 -0.73333333 -0.06666667       0.007
   0.93333333 -0.66666667  0.00000000       0.007
   1.00000000 -0.60000000 -0.20000000       0.007
   0.93333333 -0.53333333 -0.13333333       0.014
   1.00000000 -0.60000000 -0.06666667       0.007
   0.93333333 -0.53333333  0.00000000       0.007

 k-points in reciprocal lattice and weights: K-Spacing Value to Generate K-Mesh: 0.02
   0.00000000  0.00000000  0.00000000       0.000
   0.06666667  0.00000000  0.00000000       0.002
   0.13333333  0.00000000  0.00000000       0.002
   0.20000000  0.00000000  0.00000000       0.002
   0.26666667  0.00000000  0.00000000       0.002
   0.33333333  0.00000000  0.00000000       0.002
   0.40000000  0.00000000  0.00000000       0.002
   0.46666667  0.00000000  0.00000000       0.002
   0.06666667  0.06666667  0.00000000       0.002
   0.13333333  0.06666667  0.00000000       0.007
   0.20000000  0.06666667  0.00000000       0.007
   0.26666667  0.06666667  0.00000000       0.007
   0.33333333  0.06666667  0.00000000       0.007
   0.40000000  0.06666667  0.00000000       0.007
   0.46666667  0.06666667  0.00000000       0.007
  -0.46666667  0.06666667  0.00000000       0.007
  -0.40000000  0.06666667  0.00000000       0.007
  -0.33333333  0.06666667  0.00000000       0.007
  -0.26666667  0.06666667  0.00000000       0.007
  -0.20000000  0.06666667  0.00000000       0.007
  -0.13333333  0.06666667  0.00000000       0.007
  -0.06666667  0.06666667  0.00000000       0.004
   0.13333333  0.13333333  0.00000000       0.002
   0.20000000  0.13333333  0.00000000       0.007
   0.26666667  0.13333333  0.00000000       0.007
   0.33333333  0.13333333  0.00000000       0.007
   0.40000000  0.13333333  0.00000000       0.007
   0.46666667  0.13333333  0.00000000       0.007
  -0.46666667  0.13333333  0.00000000       0.007
  -0.40000000  0.13333333  0.00000000       0.007
  -0.33333333  0.13333333  0.00000000       0.007
  -0.26666667  0.13333333  0.00000000       0.007
  -0.20000000  0.13333333  0.00000000       0.007
  -0.13333333  0.13333333  0.00000000       0.004
   0.20000000  0.20000000  0.00000000       0.002
   0.26666667  0.20000000  0.00000000       0.007
   0.33333333  0.20000000  0.00000000       0.007
   0.40000000  0.20000000  0.00000000       0.007
   0.46666667  0.20000000  0.00000000       0.007
  -0.46666667  0.20000000  0.00000000       0.007
  -0.40000000  0.20000000  0.00000000       0.007
  -0.33333333  0.20000000  0.00000000       0.007
  -0.26666667  0.20000000  0.00000000       0.007
  -0.20000000  0.20000000  0.00000000       0.004
   0.26666667  0.26666667  0.00000000       0.002
   0.33333333  0.26666667  0.00000000       0.007
   0.40000000  0.26666667  0.00000000       0.007
   0.46666667  0.26666667  0.00000000       0.007
  -0.46666667  0.26666667  0.00000000       0.007
  -0.40000000  0.26666667  0.00000000       0.007
  -0.33333333  0.26666667  0.00000000       0.007
  -0.26666667  0.26666667  0.00000000       0.004
   0.33333333  0.33333333  0.00000000       0.002
   0.40000000  0.33333333  0.00000000       0.007
   0.46666667  0.33333333  0.00000000       0.007
  -0.46666667  0.33333333  0.00000000       0.007
  -0.40000000  0.33333333  0.00000000       0.007
  -0.33333333  0.33333333  0.00000000       0.004
   0.40000000  0.40000000  0.00000000       0.002
   0.46666667  0.40000000  0.00000000       0.007
  -0.46666667  0.40000000  0.00000000       0.007
  -0.40000000  0.40000000  0.00000000       0.004
   0.46666667  0.46666667  0.00000000       0.002
  -0.46666667  0.46666667  0.00000000       0.004
   0.20000000  0.13333333  0.06666667       0.007
   0.26666667  0.13333333  0.06666667       0.014
   0.33333333  0.13333333  0.06666667       0.014
   0.40000000  0.13333333  0.06666667       0.014
   0.46666667  0.13333333  0.06666667       0.014
  -0.46666667  0.13333333  0.06666667       0.014
   0.26666667  0.20000000  0.06666667       0.007
   0.33333333  0.20000000  0.06666667       0.014
   0.40000000  0.20000000  0.06666667       0.014
   0.46666667  0.20000000  0.06666667       0.014
  -0.46666667  0.20000000  0.06666667       0.014
  -0.40000000  0.20000000  0.06666667       0.014
  -0.33333333  0.20000000  0.06666667       0.014
  -0.26666667  0.20000000  0.06666667       0.014
  -0.20000000  0.20000000  0.06666667       0.014
  -0.13333333  0.20000000  0.06666667       0.007
   0.33333333  0.26666667  0.06666667       0.007
   0.40000000  0.26666667  0.06666667       0.014
   0.46666667  0.26666667  0.06666667       0.014
  -0.46666667  0.26666667  0.06666667       0.014
  -0.40000000  0.26666667  0.06666667       0.014
  -0.33333333  0.26666667  0.06666667       0.014
  -0.26666667  0.26666667  0.06666667       0.014
  -0.20000000  0.26666667  0.06666667       0.007
   0.40000000  0.33333333  0.06666667       0.007
   0.46666667  0.33333333  0.06666667       0.014
  -0.46666667  0.33333333  0.06666667       0.014
  -0.40000000  0.33333333  0.06666667       0.014
  -0.33333333  0.33333333  0.06666667       0.014
  -0.26666667  0.33333333  0.06666667       0.007
   0.46666667  0.40000000  0.06666667       0.007
  -0.46666667  0.40000000  0.06666667       0.014
  -0.40000000  0.40000000  0.06666667       0.014
  -0.33333333  0.40000000  0.06666667       0.007
  -0.46666667  0.46666667  0.06666667       0.007
  -0.40000000  0.46666667  0.06666667       0.007
   0.40000000  0.26666667  0.13333333       0.007
   0.46666667  0.26666667  0.13333333       0.014
  -0.46666667  0.26666667  0.13333333       0.014
  -0.40000000  0.26666667  0.13333333       0.014
   0.46666667  0.33333333  0.13333333       0.007
  -0.46666667  0.33333333  0.13333333       0.014
  -0.40000000  0.33333333  0.13333333       0.014
  -0.33333333  0.33333333  0.13333333       0.014
  -0.26666667  0.33333333  0.13333333       0.014
  -0.20000000  0.33333333  0.13333333       0.007
  -0.46666667  0.40000000  0.13333333       0.007
  -0.40000000  0.40000000  0.13333333       0.014
  -0.33333333  0.40000000  0.13333333       0.014
  -0.26666667  0.40000000  0.13333333       0.007
  -0.40000000  0.46666667  0.13333333       0.007
  -0.33333333  0.46666667  0.13333333       0.007
  -0.40000000  0.40000000  0.20000000       0.007
  -0.33333333  0.40000000  0.20000000       0.014
  -0.33333333  0.46666667  0.20000000       0.007
  -0.26666667  0.46666667  0.20000000       0.007

 position of ions in fractional coordinates (direct lattice) 
   0.87500000  0.87500000  0.87500000
   0.12500000  0.12500000  0.12500000

 position of ions in cartesian coordinates  (Angst):
   4.95034750  4.95034750  4.95034750
   0.70719250  0.70719250  0.70719250



--------------------------------------------------------------------------------------------------------


 k-point   1 :   0.0000 0.0000 0.0000  plane waves:     941
 k-point   2 :   0.0667 0.0000 0.0000  plane waves:     950
 k-point   3 :   0.1333 0.0000 0.0000  plane waves:     962
 k-point   4 :   0.2000 0.0000 0.0000  plane waves:     968
 k-point   5 :   0.2667 0.0000 0.0000  plane waves:     974
 k-point   6 :   0.3333 0.0000 0.0000  plane waves:     968
 k-point   7 :   0.4000 0.0000 0.0000  plane waves:     990
 k-point   8 :   0.4667 0.0000 0.0000  plane waves:     978
 k-point   9 :   0.0667 0.0667 0.0000  plane waves:     953
 k-point  10 :   0.1333 0.0667 0.0000  plane waves:     961
 k-point  11 :   0.2000 0.0667 0.0000  plane waves:     969
 k-point  12 :   0.2667 0.0667 0.0000  plane waves:     969
 k-point  13 :   0.3333 0.0667 0.0000  plane waves:     974
 k-point  14 :   0.4000 0.0667 0.0000  plane waves:     980
 k-point  15 :   0.4667 0.0667 0.0000  plane waves:     983
 k-point  16 :  -0.4667 0.0667 0.0000  plane waves:     986
 k-point  17 :  -0.4000 0.0667 0.0000  plane waves:     981
 k-point  18 :  -0.3333 0.0667 0.0000  plane waves:     983
 k-point  19 :  -0.2667 0.0667 0.0000  plane waves:     973
 k-point  20 :  -0.2000 0.0667 0.0000  plane waves:     972
 k-point  21 :  -0.1333 0.0667 0.0000  plane waves:     969
 k-point  22 :  -0.0667 0.0667 0.0000  plane waves:     953
 k-point  23 :   0.1333 0.1333 0.0000  plane waves:     962
 k-point  24 :   0.2000 0.1333 0.0000  plane waves:     973
 k-point  25 :   0.2667 0.1333 0.0000  plane waves:     978
 k-point  26 :   0.3333 0.1333 0.0000  plane waves:     978
 k-point  27 :   0.4000 0.1333 0.0000  plane waves:     988
 k-point  28 :   0.4667 0.1333 0.0000  plane waves:     987
 k-point  29 :  -0.4667 0.1333 0.0000  plane waves:     986
 k-point  30 :  -0.4000 0.1333 0.0000  plane waves:     982
 k-point  31 :  -0.3333 0.1333 0.0000  plane waves:     981
 k-point  32 :  -0.2667 0.1333 0.0000  plane waves:     973
 k-point  33 :  -0.2000 0.1333 0.0000  plane waves:     977
 k-point  34 :  -0.1333 0.1333 0.0000  plane waves:     963
 k-point  35 :   0.2000 0.2000 0.0000  plane waves:     978
 k-point  36 :   0.2667 0.2000 0.0000  plane waves:     986
 k-point  37 :   0.3333 0.2000 0.0000  plane waves:     982
 k-point  38 :   0.4000 0.2000 0.0000  plane waves:     986
 k-point  39 :   0.4667 0.2000 0.0000  plane waves:     988
 k-point  40 :  -0.4667 0.2000 0.0000  plane waves:     986
 k-point  41 :  -0.4000 0.2000 0.0000  plane waves:     983
 k-point  42 :  -0.3333 0.2000 0.0000  plane waves:     984
 k-point  43 :  -0.2667 0.2000 0.0000  plane waves:     981
 k-point  44 :  -0.2000 0.2000 0.0000  plane waves:     973
 k-point  45 :   0.2667 0.2667 0.0000  plane waves:     990
 k-point  46 :   0.3333 0.2667 0.0000  plane waves:     984
 k-point  47 :   0.4000 0.2667 0.0000  plane waves:     988
 k-point  48 :   0.4667 0.2667 0.0000  plane waves:     988
 k-point  49 :  -0.4667 0.2667 0.0000  plane waves:     985
 k-point  50 :  -0.4000 0.2667 0.0000  plane waves:     977
 k-point  51 :  -0.3333 0.2667 0.0000  plane waves:     985
 k-point  52 :  -0.2667 0.2667 0.0000  plane waves:     975
 k-point  53 :   0.3333 0.3333 0.0000  plane waves:    1002
 k-point  54 :   0.4000 0.3333 0.0000  plane waves:     987
 k-point  55 :   0.4667 0.3333 0.0000  plane waves:     988
 k-point  56 :  -0.4667 0.3333 0.0000  plane waves:     979
 k-point  57 :  -0.4000 0.3333 0.0000  plane waves:     981
 k-point  58 :  -0.3333 0.3333 0.0000  plane waves:     981
 k-point  59 :   0.4000 0.4000 0.0000  plane waves:     990
 k-point  60 :   0.4667 0.4000 0.0000  plane waves:     989
 k-point  61 :  -0.4667 0.4000 0.0000  plane waves:     979
 k-point  62 :  -0.4000 0.4000 0.0000  plane waves:     989
 k-point  63 :   0.4667 0.4667 0.0000  plane waves:     982
 k-point  64 :  -0.4667 0.4667 0.0000  plane waves:     984
 k-point  65 :   0.2000 0.1333 0.0667  plane waves:     968
 k-point  66 :   0.2667 0.1333 0.0667  plane waves:     965
 k-point  67 :   0.3333 0.1333 0.0667  plane waves:     971
 k-point  68 :   0.4000 0.1333 0.0667  plane waves:     976
 k-point  69 :   0.4667 0.1333 0.0667  plane waves:     984
 k-point  70 :  -0.4667 0.1333 0.0667  plane waves:     980
 k-point  71 :   0.2667 0.2000 0.0667  plane waves:     974
 k-point  72 :   0.3333 0.2000 0.0667  plane waves:     981
 k-point  73 :   0.4000 0.2000 0.0667  plane waves:     981
 k-point  74 :   0.4667 0.2000 0.0667  plane waves:     986
 k-point  75 :  -0.4667 0.2000 0.0667  plane waves:     983
 k-point  76 :  -0.4000 0.2000 0.0667  plane waves:     981
 k-point  77 :  -0.3333 0.2000 0.0667  plane waves:     983
 k-point  78 :  -0.2667 0.2000 0.0667  plane waves:     986
 k-point  79 :  -0.2000 0.2000 0.0667  plane waves:     977
 k-point  80 :  -0.1333 0.2000 0.0667  plane waves:     974
 k-point  81 :   0.3333 0.2667 0.0667  plane waves:     981
 k-point  82 :   0.4000 0.2667 0.0667  plane waves:     983
 k-point  83 :   0.4667 0.2667 0.0667  plane waves:     986
 k-point  84 :  -0.4667 0.2667 0.0667  plane waves:     981
 k-point  85 :  -0.4000 0.2667 0.0667  plane waves:     976
 k-point  86 :  -0.3333 0.2667 0.0667  plane waves:     983
 k-point  87 :  -0.2667 0.2667 0.0667  plane waves:     986
 k-point  88 :  -0.2000 0.2667 0.0667  plane waves:     986
 k-point  89 :   0.4000 0.3333 0.0667  plane waves:     998
 k-point  90 :   0.4667 0.3333 0.0667  plane waves:     990
 k-point  91 :  -0.4667 0.3333 0.0667  plane waves:     990
 k-point  92 :  -0.4000 0.3333 0.0667  plane waves:     978
 k-point  93 :  -0.3333 0.3333 0.0667  plane waves:     977
 k-point  94 :  -0.2667 0.3333 0.0667  plane waves:     986
 k-point  95 :   0.4667 0.4000 0.0667  plane waves:     988
 k-point  96 :  -0.4667 0.4000 0.0667  plane waves:     985
 k-point  97 :  -0.4000 0.4000 0.0667  plane waves:     986
 k-point  98 :  -0.3333 0.4000 0.0667  plane waves:     988
 k-point  99 :  -0.4667 0.4667 0.0667  plane waves:     981
 k-point 100 :  -0.4000 0.4667 0.0667  plane waves:     979
 k-point 101 :   0.4000 0.2667 0.1333  plane waves:     980
 k-point 102 :   0.4667 0.2667 0.1333  plane waves:     986
 k-point 103 :  -0.4667 0.2667 0.1333  plane waves:     983
 k-point 104 :  -0.4000 0.2667 0.1333  plane waves:     979
 k-point 105 :   0.4667 0.3333 0.1333  plane waves:     986
 k-point 106 :  -0.4667 0.3333 0.1333  plane waves:     986
 k-point 107 :  -0.4000 0.3333 0.1333  plane waves:     985
 k-point 108 :  -0.3333 0.3333 0.1333  plane waves:     982
 k-point 109 :  -0.2667 0.3333 0.1333  plane waves:     986
 k-point 110 :  -0.2000 0.3333 0.1333  plane waves:     983
 k-point 111 :  -0.4667 0.4000 0.1333  plane waves:     987
 k-point 112 :  -0.4000 0.4000 0.1333  plane waves:     984
 k-point 113 :  -0.3333 0.4000 0.1333  plane waves:     986
 k-point 114 :  -0.2667 0.4000 0.1333  plane waves:     989
 k-point 115 :  -0.4000 0.4667 0.1333  plane waves:     982
 k-point 116 :  -0.3333 0.4667 0.1333  plane waves:     987
 k-point 117 :  -0.4000 0.4000 0.2000  plane waves:     978
 k-point 118 :  -0.3333 0.4000 0.2000  plane waves:     984
 k-point 119 :  -0.3333 0.4667 0.2000  plane waves:     981
 k-point 120 :  -0.2667 0.4667 0.2000  plane waves:     978

 maximum and minimum number of plane-waves per node :      1002      941

 maximum number of plane-waves:      1002
 maximum index in each direction: 
   IXMAX=    7   IYMAX=    6   IZMAX=    6
   IXMIN=   -7   IYMIN=   -7   IZMIN=   -7


 serial   3D FFT for wavefunctions
 parallel 3D FFT for charge:
    minimum data exchange during FFTs selected (reduces bandwidth)


 total amount of memory used by VASP MPI-rank0    83645. kBytes
=======================================================================

   base      :      30000. kBytes
   nonl-proj :      17346. kBytes
   fftplans  :      13127. kBytes
   grid      :       5205. kBytes
   one-center:         31. kBytes
   wavefun   :      17936. kBytes

     INWAV:  cpu time      0.0001: real time      0.0001
 Broyden mixing: mesh for mixing (old mesh)
   NGX = 13   NGY = 13   NGZ = 13
  (NGX  = 56   NGY  = 56   NGZ  = 56)
  gives a total of   2197 points

 initial charge density was supplied:
 charge density of overlapping atoms calculated
 number of electron      28.0000000 magnetization 
 keeping initial charge density in first step


--------------------------------------------------------------------------------------------------------


 Maximum index for augmentation-charges        63191 (set IRDMAX)


--------------------------------------------------------------------------------------------------------


 First call to EWALD:  gamma=   0.497
 Maximum number of real-space cells 3x 3x 3
 Maximum number of reciprocal cells 3x 3x 3

    FEWALD:  cpu time      0.0008: real time      0.0008


--------------------------------------- Iteration      1(   1)  ---------------------------------------


    POTLOK:  cpu time      0.0369: real time      0.0373
    SETDIJ:  cpu time      0.0761: real time      0.0761
     EDDAV:  cpu time      2.6486: real time      2.6568
       DOS:  cpu time      0.0024: real time      0.0031
    --------------------------------------------
      LOOP:  cpu time      2.7640: real time      2.7733

 eigenvalue-minimisations  :  4378
 total energy-change (2. order) : 0.1541762E+03  (-0.1435527E+04)
 number of electron      28.0000000 magnetization 
 augmentation part       28.0000000 magnetization 

 Free energy of the ion-electron system (eV)
  ---------------------------------------------------
  alpha Z        PSCENC =       129.43330490
  Ewald energy   TEWEN  =     -2687.29417191
  -Hartree energ DENC   =     -1514.49283412
  -exchange      EXHF   =         0.00000000
  -V(xc)+E(xc)   XCENC  =       146.10984955
  PAW double counting   =      3673.23166740    -4543.15754504
  entropy T*S    EENTRO =        -0.00100884
  eigenvalues    EBANDS =      -242.11817035
  atomic energy  EATOM  =      5192.46507749
  Solvation  Ediel_sol  =         0.00000000
  ---------------------------------------------------
  free energy    TOTEN  =       154.17616907 eV

  energy without entropy =      154.17717791  energy(sigma->0) =      154.17667349


--------------------------------------------------------------------------------------------------------




--------------------------------------- Iteration      1(   2)  ---------------------------------------


     EDDAV:  cpu time      2.9139: real time      2.9141
       DOS:  cpu time      0.0025: real time      0.0025
    --------------------------------------------
      LOOP:  cpu time      2.9164: real time      2.9166

 eigenvalue-minimisations  :  4330
 total energy-change (2. order) :-0.1437993E+03  (-0.1416503E+03)
 number of electron      28.0000000 magnetization 
 augmentation part       28.0000000 magnetization 

 Free energy of the ion-electron system (eV)
  ---------------------------------------------------
  alpha Z        PSCENC =       129.43330490
  Ewald energy   TEWEN  =     -2687.29417191
  -Hartree energ DENC   =     -1514.49283412
  -exchange      EXHF   =         0.00000000
  -V(xc)+E(xc)   XCENC  =       146.10984955
  PAW double counting   =      3673.23166740    -4543.15754504
  entropy T*S    EENTRO =        -0.00066283
  eigenvalues    EBANDS =      -385.91784023
  atomic energy  EATOM  =      5192.46507749
  Solvation  Ediel_sol  =         0.00000000
  ---------------------------------------------------
  free energy    TOTEN  =        10.37684520 eV

  energy without entropy =       10.37750803  energy(sigma->0) =       10.37717661


--------------------------------------------------------------------------------------------------------




--------------------------------------- Iteration      1(   3)  ---------------------------------------


     EDDAV:  cpu time      2.9895: real time      2.9898
       DOS:  cpu time      0.0007: real time      0.0007
    --------------------------------------------
      LOOP:  cpu time      2.9902: real time      2.9905

 eigenvalue-minimisations  :  4722
 total energy-change (2. order) :-0.1889546E+02  (-0.1874393E+02)
 number of electron      28.0000000 magnetization 
 augmentation part       28.0000000 magnetization 

 Free energy of the ion-electron system (eV)
  ---------------------------------------------------
  alpha Z        PSCENC =       129.43330490
  Ewald energy   TEWEN  =     -2687.29417191
  -Hartree energ DENC   =     -1514.49283412
  -exchange      EXHF   =         0.00000000
  -V(xc)+E(xc)   XCENC  =       146.10984955
  PAW double counting   =      3673.23166740    -4543.15754504
  entropy T*S    EENTRO =        -0.00000000
  eigenvalues    EBANDS =      -404.81396674
  atomic energy  EATOM  =      5192.46507749
  Solvation  Ediel_sol  =         0.00000000
  ---------------------------------------------------
  free energy    TOTEN  =        -8.51861848 eV

  energy without entropy =       -8.51861848  energy(sigma->0) =       -8.51861848


--------------------------------------------------------------------------------------------------------




--------------------------------------- Iteration      1(   4)  ---------------------------------------


     EDDAV:  cpu time      3.0417: real time      3.0418
       DOS:  cpu time      0.0011: real time      0.0011
    --------------------------------------------
      LOOP:  cpu time      3.0429: real time      3.0430

 eigenvalue-minimisations  :  4944
 total energy-change (2. order) :-0.5679332E+00  (-0.5670257E+00)
 number of electron      28.0000000 magnetization 
 augmentation part       28.0000000 magnetization 

 Free energy of the ion-electron system (eV)
  ---------------------------------------------------
  alpha Z        PSCENC =       129.43330490
  Ewald energy   TEWEN  =     -2687.29417191
  -Hartree energ DENC   =     -1514.49283412
  -exchange      EXHF   =         0.00000000
  -V(xc)+E(xc)   XCENC  =       146.10984955
  PAW double counting   =      3673.23166740    -4543.15754504
  entropy T*S    EENTRO =        -0.00001767
  eigenvalues    EBANDS =      -405.38188225
  atomic energy  EATOM  =      5192.46507749
  Solvation  Ediel_sol  =         0.00000000
  ---------------------------------------------------
  free energy    TOTEN  =        -9.08655166 eV

  energy without entropy =       -9.08653399  energy(sigma->0) =       -9.08654283


--------------------------------------------------------------------------------------------------------




--------------------------------------- Iteration      1(   5)  ---------------------------------------


     EDDAV:  cpu time      2.9965: real time      2.9966
       DOS:  cpu time      0.0012: real time      0.0012
    CHARGE:  cpu time      0.3051: real time      0.3051
    MIXING:  cpu time      0.0018: real time      0.0018
    --------------------------------------------
      LOOP:  cpu time      3.3047: real time      3.3048

 eigenvalue-minimisations  :  4792
 total energy-change (2. order) :-0.9161223E-02  (-0.9157865E-02)
 number of electron      28.0000001 magnetization 
 augmentation part       16.8286063 magnetization 

 Broyden mixing:
  rms(total) = 0.31954E+00    rms(broyden)= 0.31949E+00
  rms(prec ) = 0.69773E+00
  weight for this iteration     100.00

 Free energy of the ion-electron system (eV)
  ---------------------------------------------------
  alpha Z        PSCENC =       129.43330490
  Ewald energy   TEWEN  =     -2687.29417191
  -Hartree energ DENC   =     -1514.49283412
  -exchange      EXHF   =         0.00000000
  -V(xc)+E(xc)   XCENC  =       146.10984955
  PAW double counting   =      3673.23166740    -4543.15754504
  entropy T*S    EENTRO =        -0.00002474
  eigenvalues    EBANDS =      -405.39103641
  atomic energy  EATOM  =      5192.46507749
  Solvation  Ediel_sol  =         0.00000000
  ---------------------------------------------------
  free energy    TOTEN  =        -9.09571289 eV

  energy without entropy =       -9.09568815  energy(sigma->0) =       -9.09570052


--------------------------------------------------------------------------------------------------------




--------------------------------------- Iteration      1(   6)  ---------------------------------------


    POTLOK:  cpu time      0.0672: real time      0.0672
    SETDIJ:  cpu time      0.0815: real time      0.0816
     EDDAV:  cpu time      3.0881: real time      3.0882
       DOS:  cpu time      0.0012: real time      0.0011
    CHARGE:  cpu time      0.2644: real time      0.2644
    MIXING:  cpu time      0.0019: real time      0.0037
    --------------------------------------------
      LOOP:  cpu time      3.5042: real time      3.5062

 eigenvalue-minimisations  :  4632
 total energy-change (2. order) : 0.5741295E-01  (-0.2303842E-02)
 number of electron      28.0000001 magnetization 
 augmentation part       16.8380413 magnetization 

 Broyden mixing:
  rms(total) = 0.19078E+00    rms(broyden)= 0.19077E+00
  rms(prec ) = 0.42421E+00
  weight for this iteration     100.00

 eigenvalues of (default mixing * dielectric matrix)
  average eigenvalue GAMMA=   2.4633
  2.4633

 Free energy of the ion-electron system (eV)
  ---------------------------------------------------
  alpha Z        PSCENC =       129.43330490
  Ewald energy   TEWEN  =     -2687.29417191
  -Hartree energ DENC   =     -1514.19242097
  -exchange      EXHF   =         0.00000000
  -V(xc)+E(xc)   XCENC  =       145.95754695
  PAW double counting   =      4006.15201792    -4878.08254164
  entropy T*S    EENTRO =        -0.00002450
  eigenvalues    EBANDS =      -403.47708819
  atomic energy  EATOM  =      5192.46507749
  Solvation  Ediel_sol  =         0.00000000
  ---------------------------------------------------
  free energy    TOTEN  =        -9.03829994 eV

  energy without entropy =       -9.03827544  energy(sigma->0) =       -9.03828769


--------------------------------------------------------------------------------------------------------




--------------------------------------- Iteration      1(   7)  ---------------------------------------


    POTLOK:  cpu time      0.0528: real time      0.0528
    SETDIJ:  cpu time      0.0786: real time      0.0786
     EDDAV:  cpu time      2.8077: real time      2.8079
       DOS:  cpu time      0.0013: real time      0.0013
    CHARGE:  cpu time      0.2860: real time      0.2860
    MIXING:  cpu time      0.0009: real time      0.0010
    --------------------------------------------
      LOOP:  cpu time      3.2274: real time      3.2275

 eigenvalue-minimisations  :  4534
 total energy-change (2. order) : 0.3122803E-01  (-0.5648006E-02)
 number of electron      28.0000001 magnetization 
 augmentation part       16.8518985 magnetization 

 Broyden mixing:
  rms(total) = 0.15238E-01    rms(broyden)= 0.15236E-01
  rms(prec ) = 0.30047E-01
  weight for this iteration     100.00

 eigenvalues of (default mixing * dielectric matrix)
  average eigenvalue GAMMA=   2.4862
  2.4862  2.4862

 Free energy of the ion-electron system (eV)
  ---------------------------------------------------
  alpha Z        PSCENC =       129.43330490
  Ewald energy   TEWEN  =     -2687.29417191
  -Hartree energ DENC   =     -1514.32748622
  -exchange      EXHF   =         0.00000000
  -V(xc)+E(xc)   XCENC  =       145.77677060
  PAW double counting   =      4549.63180377    -5424.97753641
  entropy T*S    EENTRO =        -0.00002507
  eigenvalues    EBANDS =      -399.71480907
  atomic energy  EATOM  =      5192.46507749
  Solvation  Ediel_sol  =         0.00000000
  ---------------------------------------------------
  free energy    TOTEN  =        -9.00707191 eV

  energy without entropy =       -9.00704685  energy(sigma->0) =       -9.00705938


--------------------------------------------------------------------------------------------------------




--------------------------------------- Iteration      1(   8)  ---------------------------------------


    POTLOK:  cpu time      0.0497: real time      0.0497
    SETDIJ:  cpu time      0.0867: real time      0.0867
     EDDAV:  cpu time      3.1920: real time      3.1921
       DOS:  cpu time      0.0013: real time      0.0013
    CHARGE:  cpu time      0.3171: real time      0.3171
    MIXING:  cpu time      0.0010: real time      0.0016
    --------------------------------------------
      LOOP:  cpu time      3.6478: real time      3.6484

 eigenvalue-minimisations  :  4988
 total energy-change (2. order) :-0.1773083E-02  (-0.6441173E-03)
 number of electron      28.0000001 magnetization 
 augmentation part       16.8495365 magnetization 

 Broyden mixing:
  rms(total) = 0.47822E-02    rms(broyden)= 0.47817E-02
  rms(prec ) = 0.10824E-01
  weight for this iteration     100.00

 eigenvalues of (default mixing * dielectric matrix)
  average eigenvalue GAMMA=   2.1256
  1.4548  2.8899  2.0321

 Free energy of the ion-electron system (eV)
  ---------------------------------------------------
  alpha Z        PSCENC =       129.43330490
  Ewald energy   TEWEN  =     -2687.29417191
  -Hartree energ DENC   =     -1514.92531500
  -exchange      EXHF   =         0.00000000
  -V(xc)+E(xc)   XCENC  =       145.80417426
  PAW double counting   =      4511.88446976    -5387.68874619
  entropy T*S    EENTRO =        -0.00002377
  eigenvalues    EBANDS =      -398.68761453
  atomic energy  EATOM  =      5192.46507749
  Solvation  Ediel_sol  =         0.00000000
  ---------------------------------------------------
  free energy    TOTEN  =        -9.00884499 eV

  energy without entropy =       -9.00882122  energy(sigma->0) =       -9.00883311


--------------------------------------------------------------------------------------------------------




--------------------------------------- Iteration      1(   9)  ---------------------------------------


    POTLOK:  cpu time      0.0443: real time      0.0443
    SETDIJ:  cpu time      0.0864: real time      0.0864
     EDDAV:  cpu time      3.2843: real time      3.2846
       DOS:  cpu time      0.0013: real time      0.0013
    CHARGE:  cpu time      0.2663: real time      0.2664
    MIXING:  cpu time      0.0009: real time      0.0009
    --------------------------------------------
      LOOP:  cpu time      3.6835: real time      3.6838

 eigenvalue-minimisations  :  5566
 total energy-change (2. order) :-0.2665990E-04  (-0.2471212E-04)
 number of electron      28.0000001 magnetization 
 augmentation part       16.8506034 magnetization 

 Broyden mixing:
  rms(total) = 0.17539E-02    rms(broyden)= 0.17527E-02
  rms(prec ) = 0.41585E-02
  weight for this iteration     100.00

 eigenvalues of (default mixing * dielectric matrix)
  average eigenvalue GAMMA=   2.0610
  3.1336  2.3339  1.9047  0.8717

 Free energy of the ion-electron system (eV)
  ---------------------------------------------------
  alpha Z        PSCENC =       129.43330490
  Ewald energy   TEWEN  =     -2687.29417191
  -Hartree energ DENC   =     -1514.81641880
  -exchange      EXHF   =         0.00000000
  -V(xc)+E(xc)   XCENC  =       145.79580258
  PAW double counting   =      4522.45928705    -5398.09308163
  entropy T*S    EENTRO =        -0.00002396
  eigenvalues    EBANDS =      -398.95864738
  atomic energy  EATOM  =      5192.46507749
  Solvation  Ediel_sol  =         0.00000000
  ---------------------------------------------------
  free energy    TOTEN  =        -9.00887165 eV

  energy without entropy =       -9.00884769  energy(sigma->0) =       -9.00885967


--------------------------------------------------------------------------------------------------------




--------------------------------------- Iteration      1(  10)  ---------------------------------------


    POTLOK:  cpu time      0.0456: real time      0.0456
    SETDIJ:  cpu time      0.0796: real time      0.0796
     EDDAV:  cpu time      3.3225: real time      3.3227
       DOS:  cpu time      0.0012: real time      0.0012
    CHARGE:  cpu time      0.2662: real time      0.2662
    MIXING:  cpu time      0.0009: real time      0.0009
    --------------------------------------------
      LOOP:  cpu time      3.7161: real time      3.7163

 eigenvalue-minimisations  :  4682
 total energy-change (2. order) :-0.2403217E-04  (-0.6644270E-05)
 number of electron      28.0000001 magnetization 
 augmentation part       16.8510163 magnetization 

 Broyden mixing:
  rms(total) = 0.62027E-03    rms(broyden)= 0.61730E-03
  rms(prec ) = 0.16018E-02
  weight for this iteration     100.00

 eigenvalues of (default mixing * dielectric matrix)
  average eigenvalue GAMMA=   2.0311
  3.1564  2.3055  2.3055  1.0547  1.3333

 Free energy of the ion-electron system (eV)
  ---------------------------------------------------
  alpha Z        PSCENC =       129.43330490
  Ewald energy   TEWEN  =     -2687.29417191
  -Hartree energ DENC   =     -1514.81429404
  -exchange      EXHF   =         0.00000000
  -V(xc)+E(xc)   XCENC  =       145.79513369
  PAW double counting   =      4520.58360778    -5396.10543066
  entropy T*S    EENTRO =        -0.00002394
  eigenvalues    EBANDS =      -399.07209899
  atomic energy  EATOM  =      5192.46507749
  Solvation  Ediel_sol  =         0.00000000
  ---------------------------------------------------
  free energy    TOTEN  =        -9.00889569 eV

  energy without entropy =       -9.00887175  energy(sigma->0) =       -9.00888372


--------------------------------------------------------------------------------------------------------




--------------------------------------- Iteration      1(  11)  ---------------------------------------


    POTLOK:  cpu time      0.0515: real time      0.0515
    SETDIJ:  cpu time      0.0820: real time      0.0820
     EDDAV:  cpu time      3.3036: real time      3.3038
       DOS:  cpu time      0.0021: real time      0.0021
    CHARGE:  cpu time      0.3067: real time      0.3067
    MIXING:  cpu time      0.0015: real time      0.0015
    --------------------------------------------
      LOOP:  cpu time      3.7474: real time      3.7477

 eigenvalue-minimisations  :  5526
 total energy-change (2. order) :-0.1274528E-05  (-0.9016479E-06)
 number of electron      28.0000001 magnetization 
 augmentation part       16.8508526 magnetization 

 Broyden mixing:
  rms(total) = 0.14419E-03    rms(broyden)= 0.13118E-03
  rms(prec ) = 0.28161E-03
  weight for this iteration     100.00

 eigenvalues of (default mixing * dielectric matrix)
  average eigenvalue GAMMA=   1.9443
  3.2308  2.6089  2.4135  0.9816  1.2573  1.1739

 Free energy of the ion-electron system (eV)
  ---------------------------------------------------
  alpha Z        PSCENC =       129.43330490
  Ewald energy   TEWEN  =     -2687.29417191
  -Hartree energ DENC   =     -1514.87807639
  -exchange      EXHF   =         0.00000000
  -V(xc)+E(xc)   XCENC  =       145.79753023
  PAW double counting   =      4520.43038184    -5395.98366476
  entropy T*S    EENTRO =        -0.00002386
  eigenvalues    EBANDS =      -398.97925449
  atomic energy  EATOM  =      5192.46507749
  Solvation  Ediel_sol  =         0.00000000
  ---------------------------------------------------
  free energy    TOTEN  =        -9.00889696 eV

  energy without entropy =       -9.00887310  energy(sigma->0) =       -9.00888503


--------------------------------------------------------------------------------------------------------




--------------------------------------- Iteration      1(  12)  ---------------------------------------


    POTLOK:  cpu time      0.0537: real time      0.0537
    SETDIJ:  cpu time      0.0786: real time      0.0786
     EDDAV:  cpu time      2.1680: real time      2.1682
       DOS:  cpu time      0.0012: real time      0.0012
    --------------------------------------------
      LOOP:  cpu time      2.3015: real time      2.3017

 eigenvalue-minimisations  :  2842
 total energy-change (2. order) :-0.1041053E-06  (-0.4023770E-07)
 number of electron      28.0000001 magnetization 
 augmentation part       16.8508526 magnetization 

 Free energy of the ion-electron system (eV)
  ---------------------------------------------------
  alpha Z        PSCENC =       129.43330490
  Ewald energy   TEWEN  =     -2687.29417191
  -Hartree energ DENC   =     -1514.88051433
  -exchange      EXHF   =         0.00000000
  -V(xc)+E(xc)   XCENC  =       145.79756090
  PAW double counting   =      4520.39486128    -5395.93682408
  entropy T*S    EENTRO =        -0.00002386
  eigenvalues    EBANDS =      -398.98816746
  atomic energy  EATOM  =      5192.46507749
  Solvation  Ediel_sol  =         0.00000000
  ---------------------------------------------------
  free energy    TOTEN  =        -9.00889706 eV

  energy without entropy =       -9.00887320  energy(sigma->0) =       -9.00888513


--------------------------------------------------------------------------------------------------------




 average (electrostatic) potential at core
  the test charge radii are     0.9911
  (the norm of the test charge is              1.0000)
       1 -74.3459       2 -74.3459



 E-fermi :   5.0259     XC(G=0):  -9.9256     alpha+bet :-10.4170

 Fermi energy:         5.0258637448

 k-point     1 :       0.0000    0.0000    0.0000
  band No.  band energies     occupation 
      1     -19.8228      2.00000
      2     -19.8228      2.00000
      3     -19.8228      2.00000
      4     -19.7873      2.00000
      5     -19.7873      2.00000
      6     -19.5761      2.00000
      7     -19.5761      2.00000
      8     -19.5761      2.00000
      9     -19.5631      2.00000
     10     -19.5631      2.00000
     11      -7.7815      2.00000
     12       4.9910      1.67574
     13       4.9910      1.67553
     14       4.9910      1.67553
     15       5.0270      0.97485
     16       7.5463      0.00000
     17       7.5463      0.00000
     18       7.5463      0.00000

 k-point     2 :       0.0667    0.0000    0.0000
  band No.  band energies     occupation 
      1     -19.8258      2.00000
      2     -19.8258      2.00000
      3     -19.8222      2.00000
      4     -19.7834      2.00000
      5     -19.7834      2.00000
      6     -19.5810      2.00000
      7     -19.5810      2.00000
      8     -19.5770      2.00000
      9     -19.5587      2.00000
     10     -19.5587      2.00000
     11      -7.7272      2.00000
     12       3.7828      2.00000
     13       4.8801      1.99996
     14       4.8802      1.99996
     15       5.8606      0.00000
     16       7.6941      0.00000
     17       7.6941      0.00000
     18       7.7856      0.00000

 k-point     3 :       0.1333    0.0000    0.0000
  band No.  band energies     occupation 
      1     -19.8319      2.00000
      2     -19.8319      2.00000
      3     -19.8202      2.00000
      4     -19.7747      2.00000
      5     -19.7747      2.00000
      6     -19.5893      2.00000
      7     -19.5893      2.00000
      8     -19.5795      2.00000
      9     -19.5520      2.00000
     10     -19.5520      2.00000
     11      -7.5653      2.00000
     12       2.4738      2.00000
     13       4.6194      2.00000
     14       4.6194      2.00000
     15       6.0257      0.00000
     16       8.0434      0.00000
     17       8.0434      0.00000
     18       8.6103      0.00000

 k-point     4 :       0.2000    0.0000    0.0000
  band No.  band energies     occupation 
      1     -19.8377      2.00000
      2     -19.8377      2.00000
      3     -19.8171      2.00000
      4     -19.7651      2.00000
      5     -19.7651      2.00000
      6     -19.5972      2.00000
      7     -19.5972      2.00000
      8     -19.5832      2.00000
      9     -19.5461      2.00000
     10     -19.5461      2.00000
     11      -7.3002      2.00000
     12       1.1891      2.00000
     13       4.3193      2.00000
     14       4.3193      2.00000
     15       5.8450      0.00000
     16       8.4185      0.00000
     17       8.4186      0.00000
     18       9.7327      0.00000

 k-point     5 :       0.2667    0.0000    0.0000
  band No.  band energies     occupation 
      1     -19.8422      2.00000
      2     -19.8422      2.00000
      3     -19.8135      2.00000
      4     -19.7568      2.00000
      5     -19.7568      2.00000
      6     -19.6035      2.00000
      7     -19.6035      2.00000
      8     -19.5874      2.00000
      9     -19.5416      2.00000
     10     -19.5416      2.00000
     11      -6.9418      2.00000
     12      -0.0163      2.00000
     13       4.0442      2.00000
     14       4.0443      2.00000
     15       5.6082      0.00000
     16       8.6758      0.00000
     17       8.6759      0.00000
     18      10.9314      0.00000

 k-point     6 :       0.3333    0.0000    0.0000
  band No.  band energies     occupation 
      1     -19.8451      2.00000
      2     -19.8451      2.00000
      3     -19.8099      2.00000
      4     -19.7507      2.00000
      5     -19.7507      2.00000
      6     -19.6077      2.00000
      7     -19.6077      2.00000
      8     -19.5915      2.00000
      9     -19.5384      2.00000
     10     -19.5384      2.00000
     11      -6.5127      2.00000
     12      -1.0957      2.00000
     13       3.8241      2.00000
     14       3.8242      2.00000
     15       5.4036      0.00000
     16       8.7720      0.00000
     17       8.7720      0.00000
     18      12.0328      0.00000

 k-point     7 :       0.4000    0.0000    0.0000
  band No.  band energies     occupation 
      1     -19.8469      2.00000
      2     -19.8469      2.00000
      3     -19.8073      2.00000
      4     -19.7471      2.00000
      5     -19.7471      2.00000
      6     -19.6101      2.00000
      7     -19.6101      2.00000
      8     -19.5949      2.00000
      9     -19.5366      2.00000
     10     -19.5366      2.00000
     11      -6.0679      2.00000
     12      -1.9803      2.00000
     13       3.6726      2.00000
     14       3.6726      2.00000
     15       5.2596      0.00000
     16       8.7685      0.00000
     17       8.7685      0.00000
     18      12.2271      0.00000

 k-point     8 :       0.4667    0.0000    0.0000
  band No.  band energies     occupation 
      1     -19.8475      2.00000
      2     -19.8475      2.00000
      3     -19.8055      2.00000
      4     -19.7455      2.00000
      5     -19.7455      2.00000
      6     -19.6109      2.00000
      7     -19.6109      2.00000
      8     -19.5967      2.00000
      9     -19.5358      2.00000
     10     -19.5358      2.00000
     11      -5.7418      2.00000
     12      -2.5280      2.00000
     13       3.5957      2.00000
     14       3.5957      2.00000
     15       5.1860      0.00001
     16       8.7451      0.00000
     17       8.7451      0.00000
     18      12.1393      0.00000

 k-point     9 :       0.0667    0.0667    0.0000
  band No.  band energies     occupation 
      1     -19.8264      2.00000
      2     -19.8246      2.00000
      3     -19.8246      2.00000
      4     -19.7847      2.00000
      5     -19.7793      2.00000
      6     -19.5903      2.00000
      7     -19.5735      2.00000
      8     -19.5735      2.00000
      9     -19.5655      2.00000
     10     -19.5546      2.00000
     11      -7.7090      2.00000
     12       3.7224      2.00000
     13       4.6696      2.00000
     14       4.6696      2.00000
     15       6.2661      0.00000
     16       7.3204      0.00000
     17       7.9598      0.00000
     18       7.9598      0.00000

 k-point    10 :       0.1333    0.0667    0.0000
  band No.  band energies     occupation 
      1     -19.8322      2.00000
      2     -19.8284      2.00000
      3     -19.8233      2.00000
      4     -19.7792      2.00000
      5     -19.7703      2.00000
      6     -19.6006      2.00000
      7     -19.5785      2.00000
      8     -19.5731      2.00000
      9     -19.5608      2.00000
     10     -19.5491      2.00000
     11      -7.5827      2.00000
     12       2.7407      2.00000
     13       4.3627      2.00000
     14       4.4492      2.00000
     15       6.6163      0.00000
     16       7.3395      0.00000
     17       8.3821      0.00000
     18       8.5781      0.00000

 k-point    11 :       0.2000    0.0667    0.0000
  band No.  band energies     occupation 
      1     -19.8391      2.00000
      2     -19.8339      2.00000
      3     -19.8196      2.00000
      4     -19.7707      2.00000
      5     -19.7601      2.00000
      6     -19.6099      2.00000
      7     -19.5869      2.00000
      8     -19.5761      2.00000
      9     -19.5537      2.00000
     10     -19.5432      2.00000
     11      -7.3513      2.00000
     12       1.5350      2.00000
     13       4.0534      2.00000
     14       4.1613      2.00000
     15       6.5009      0.00000
     16       7.7157      0.00000
     17       8.8052      0.00000
     18       9.4896      0.00000

 k-point    12 :       0.2667    0.0667    0.0000
  band No.  band energies     occupation 
      1     -19.8448      2.00000
      2     -19.8389      2.00000
      3     -19.8148      2.00000
      4     -19.7620      2.00000
[...]
      5     -20.0844      2.00000
      6     -20.0781      2.00000
      7     -20.0315      2.00000
      8     -20.0095      2.00000
      9     -19.9334      2.00000
     10     -19.9286      2.00000
     11      -5.5377      2.00000
     12      -2.5491      2.00000
     13       0.9631      2.00000
     14       1.9543      2.00000
     15       6.9498      0.00000
     16       7.9135      0.00000
     17       9.1127      0.00000
     18      11.7567      0.00000

 k-point   107 :      -0.4000    0.3333    0.1333
  band No.  band energies     occupation 
      1     -20.2433      2.00000
      2     -20.2347      2.00000
      3     -20.1504      2.00000
      4     -20.1030      2.00000
      5     -20.0844      2.00000
      6     -20.0758      2.00000
      7     -20.0418      2.00000
      8     -20.0185      2.00000
      9     -19.9318      2.00000
     10     -19.9237      2.00000
     11      -5.1532      2.00000
     12      -3.0348      2.00000
     13       0.7168      2.00000
     14       1.8494      2.00000
     15       7.0301      0.00000
     16       8.5323      0.00000
     17       9.3286      0.00000
     18      11.4707      0.00000

 k-point   108 :      -0.3333    0.3333    0.1333
  band No.  band energies     occupation 
      1     -20.2448      2.00000
      2     -20.2351      2.00000
      3     -20.1465      2.00000
      4     -20.1012      2.00000
      5     -20.0827      2.00000
      6     -20.0748      2.00000
      7     -20.0470      2.00000
      8     -20.0217      2.00000
      9     -19.9311      2.00000
     10     -19.9221      2.00000
     11      -5.0366      2.00000
     12      -3.1726      2.00000
     13       0.5900      2.00000
     14       1.8882      2.00000
     15       7.1431      0.00000
     16       8.4977      0.00000
     17      10.3936      0.00000
     18      10.5531      0.00000

 k-point   109 :      -0.2667    0.3333    0.1333
  band No.  band energies     occupation 
      1     -20.2432      2.00000
      2     -20.2348      2.00000
      3     -20.1495      2.00000
      4     -20.1079      2.00000
      5     -20.0844      2.00000
      6     -20.0719      2.00000
      7     -20.0404      2.00000
      8     -20.0200      2.00000
      9     -19.9316      2.00000
     10     -19.9241      2.00000
     11      -5.3024      2.00000
     12      -2.8509      2.00000
     13       0.6129      2.00000
     14       2.0568      2.00000
     15       7.2925      0.00000
     16       8.3801      0.00000
     17       9.4896      0.00000
     18      11.3674      0.00000

 k-point   110 :      -0.2000    0.3333    0.1333
  band No.  band energies     occupation 
      1     -20.2389      2.00000
      2     -20.2334      2.00000
      3     -20.1584      2.00000
      4     -20.1178      2.00000
      5     -20.0898      2.00000
      6     -20.0678      2.00000
      7     -20.0263      2.00000
      8     -20.0141      2.00000
      9     -19.9333      2.00000
     10     -19.9293      2.00000
     11      -5.7215      2.00000
     12      -2.3236      2.00000
     13       0.8258      2.00000
     14       2.3199      2.00000
     15       7.4079      0.00000
     16       7.9827      0.00000
     17       8.9472      0.00000
     18      11.2960      0.00000

 k-point   111 :      -0.4667    0.4000    0.1333
  band No.  band energies     occupation 
      1     -20.2365      2.00000
      2     -20.2354      2.00000
      3     -20.1612      2.00000
      4     -20.1025      2.00000
      5     -20.0998      2.00000
      6     -20.0638      2.00000
      7     -20.0394      2.00000
      8     -20.0076      2.00000
      9     -19.9312      2.00000
     10     -19.9303      2.00000
     11      -5.2900      2.00000
     12      -2.8342      2.00000
     13       1.1224      2.00000
     14       1.6341      2.00000
     15       6.5520      0.00000
     16       7.0287      0.00000
     17      10.1748      0.00000
     18      12.4672      0.00000

 k-point   112 :      -0.4000    0.4000    0.1333
  band No.  band energies     occupation 
      1     -20.2419      2.00000
      2     -20.2368      2.00000
      3     -20.1471      2.00000
      4     -20.1047      2.00000
      5     -20.0910      2.00000
      6     -20.0602      2.00000
      7     -20.0502      2.00000
      8     -20.0209      2.00000
      9     -19.9293      2.00000
     10     -19.9245      2.00000
     11      -4.8647      2.00000
     12      -3.3118      2.00000
     13       0.8135      2.00000
     14       1.4887      2.00000
     15       6.8141      0.00000
     16       7.8025      0.00000
     17       9.9097      0.00000
     18      11.9163      0.00000

 k-point   113 :      -0.3333    0.4000    0.1333
  band No.  band energies     occupation 
      1     -20.2453      2.00000
      2     -20.2371      2.00000
      3     -20.1402      2.00000
      4     -20.0980      2.00000
      5     -20.0854      2.00000
      6     -20.0660      2.00000
      7     -20.0577      2.00000
      8     -20.0267      2.00000
      9     -19.9288      2.00000
     10     -19.9212      2.00000
     11      -4.6485      2.00000
     12      -3.5354      2.00000
     13       0.5520      2.00000
     14       1.5496      2.00000
     15       6.9538      0.00000
     16       8.9495      0.00000
     17       9.7183      0.00000
     18      10.7358      0.00000

 k-point   114 :      -0.2667    0.4000    0.1333
  band No.  band energies     occupation 
      1     -20.2456      2.00000
      2     -20.2366      2.00000
      3     -20.1420      2.00000
      4     -20.0942      2.00000
      5     -20.0847      2.00000
      6     -20.0731      2.00000
      7     -20.0552      2.00000
      8     -20.0250      2.00000
      9     -19.9294      2.00000
     10     -19.9211      2.00000
     11      -4.8885      2.00000
     12      -3.2777      2.00000
     13       0.4624      2.00000
     14       1.7539      2.00000
     15       7.1401      0.00000
     16       9.2840      0.00000
     17       9.6560      0.00000
     18      10.3985      0.00000

 k-point   115 :      -0.4000    0.4667    0.1333
  band No.  band energies     occupation 
      1     -20.2383      2.00000
      2     -20.2379      2.00000
      3     -20.1447      2.00000
      4     -20.1249      2.00000
      5     -20.0798      2.00000
      6     -20.0592      2.00000
      7     -20.0425      2.00000
      8     -20.0233      2.00000
      9     -19.9279      2.00000
     10     -19.9274      2.00000
     11      -4.5262      2.00000
     12      -3.6991      2.00000
     13       1.1049      2.00000
     14       1.2737      2.00000
     15       6.5655      0.00000
     16       6.7311      0.00000
     17      11.1992      0.00000
     18      12.2045      0.00000

 k-point   116 :      -0.3333    0.4667    0.1333
  band No.  band energies     occupation 
      1     -20.2429      2.00000
      2     -20.2381      2.00000
      3     -20.1363      2.00000
      4     -20.1182      2.00000
      5     -20.0742      2.00000
      6     -20.0674      2.00000
      7     -20.0474      2.00000
      8     -20.0308      2.00000
      9     -19.9277      2.00000
     10     -19.9231      2.00000
     11      -4.2863      2.00000
     12      -3.9183      2.00000
     13       0.7786      2.00000
     14       1.3125      2.00000
     15       6.7650      0.00000
     16       7.7294      0.00000
     17      10.9288      0.00000
     18      10.9627      0.00000

 k-point   117 :      -0.4000    0.4000    0.2000
  band No.  band energies     occupation 
      1     -20.2421      2.00000
      2     -20.2375      2.00000
      3     -20.1464      2.00000
      4     -20.1007      2.00000
      5     -20.0901      2.00000
      6     -20.0709      2.00000
      7     -20.0440      2.00000
      8     -20.0216      2.00000
      9     -19.9289      2.00000
     10     -19.9247      2.00000
     11      -5.1077      2.00000
     12      -3.0293      2.00000
     13       0.7090      2.00000
     14       1.6288      2.00000
     15       7.8405      0.00000
     16       7.9439      0.00000
     17       8.8793      0.00000
     18      11.7115      0.00000

 k-point   118 :      -0.3333    0.4000    0.2000
  band No.  band energies     occupation 
      1     -20.2446      2.00000
      2     -20.2388      2.00000
      3     -20.1369      2.00000
      4     -20.0962      2.00000
      5     -20.0895      2.00000
      6     -20.0673      2.00000
      7     -20.0548      2.00000
      8     -20.0291      2.00000
      9     -19.9273      2.00000
     10     -19.9218      2.00000
     11      -4.7446      2.00000
     12      -3.4209      2.00000
     13       0.5948      2.00000
     14       1.4322      2.00000
     15       7.9342      0.00000
     16       8.4357      0.00000
     17       9.2954      0.00000
     18      10.5299      0.00000

 k-point   119 :      -0.3333    0.4667    0.2000
  band No.  band energies     occupation 
      1     -20.2427      2.00000
      2     -20.2409      2.00000
      3     -20.1306      2.00000
      4     -20.1115      2.00000
      5     -20.0821      2.00000
      6     -20.0629      2.00000
      7     -20.0519      2.00000
      8     -20.0348      2.00000
      9     -19.9251      2.00000
     10     -19.9233      2.00000
     11      -4.4367      2.00000
     12      -3.7365      2.00000
     13       0.7983      2.00000
     14       1.1068      2.00000
     15       7.8235      0.00000
     16       7.9172      0.00000
     17       9.6405      0.00000
     18      10.7086      0.00000

 k-point   120 :      -0.2667    0.4667    0.2000
  band No.  band energies     occupation 
      1     -20.2444      2.00000
      2     -20.2409      2.00000
      3     -20.1267      2.00000
      4     -20.1070      2.00000
      5     -20.0805      2.00000
      6     -20.0675      2.00000
      7     -20.0544      2.00000
      8     -20.0375      2.00000
      9     -19.9250      2.00000
     10     -19.9217      2.00000
     11      -4.3511      2.00000
     12      -3.8125      2.00000
     13       0.6761      2.00000
     14       1.1219      2.00000
     15       8.0173      0.00000
     16       8.9706      0.00000
     17       9.4746      0.00000
     18       9.5031      0.00000


--------------------------------------------------------------------------------------------------------


 soft charge-density along one line, spin component           1
         0         1         2         3         4         5         6         7         8         9
 total charge-density along one line

 pseudopotential strength for first ion, spin component:           1
-22.621   0.000  -0.000   0.000   0.000   4.541  -0.000   0.000
  0.000 -22.621   0.000   0.000  -0.000  -0.000   4.541  -0.000
 -0.000   0.000 -22.621   0.000   0.000   0.000  -0.000   4.541
  0.000   0.000   0.000 -22.621   0.000  -0.000  -0.000  -0.000
  0.000  -0.000   0.000   0.000 -22.621  -0.000   0.000  -0.000
  4.541  -0.000   0.000  -0.000  -0.000   1.878   0.000   0.000
 -0.000   4.541  -0.000  -0.000   0.000   0.000   1.878  -0.000
  0.000  -0.000   4.541  -0.000  -0.000   0.000  -0.000   1.877
 -0.000  -0.000  -0.000   4.541  -0.000   0.000   0.000  -0.000
 -0.000   0.000  -0.000  -0.000   4.541  -0.000   0.000   0.000
  0.000   0.000  -0.000   0.000   0.000  -0.000  -0.000   0.000
  0.000   0.000  -0.000   0.000   0.000  -0.000  -0.000   0.000
  0.000   0.000   0.000  -0.001   0.000  -0.000  -0.000  -0.000
 -0.001   0.000  -0.000   0.000  -0.000   0.001  -0.000   0.000
  0.000  -0.001   0.000   0.000  -0.000  -0.000   0.001  -0.000
  0.000   0.000   0.000  -0.002   0.000  -0.000  -0.000  -0.000
 -0.002   0.000  -0.000   0.000  -0.000   0.001  -0.000   0.000
  0.000  -0.002   0.000   0.000  -0.000  -0.000   0.001  -0.000
 total augmentation occupancy for first ion, spin component:           1
  2.005   0.000  -0.000  -0.000  -0.000   0.016   0.000   0.000  -0.000  -0.000   0.000   0.000   0.000   0.050   0.000   0.000
  0.000   2.005  -0.000   0.000   0.000   0.000   0.016  -0.000  -0.000  -0.000   0.000   0.000   0.000   0.000   0.050  -0.000
 -0.000  -0.000   2.003   0.000   0.000  -0.000  -0.000   0.008   0.000   0.000  -0.000   0.000   0.000  -0.000   0.000  -0.000
 -0.000   0.000   0.000   2.005   0.000  -0.000   0.000   0.000   0.016  -0.000  -0.000  -0.000   0.050   0.000   0.000  -0.015
 -0.000   0.000   0.000   0.000   2.003   0.000   0.000   0.000   0.000   0.008  -0.000   0.000   0.000   0.000  -0.000   0.000
  0.016   0.000  -0.000  -0.000   0.000   0.038   0.000  -0.000   0.000  -0.000   0.000   0.000  -0.000   0.204  -0.000   0.000
  0.000   0.016   0.000  -0.000   0.000   0.000   0.038   0.000   0.000   0.000   0.000  -0.000   0.000   0.000   0.204  -0.000
 -0.000   0.000   0.008   0.000   0.000  -0.000   0.000   0.011  -0.000   0.000  -0.000   0.000   0.000  -0.000   0.000  -0.000
 -0.000   0.000   0.000   0.016   0.000  -0.000   0.000   0.000   0.038  -0.000   0.000  -0.000   0.204   0.000   0.000  -0.034
 -0.000  -0.000   0.000   0.000   0.008  -0.000  -0.000   0.000  -0.000   0.011   0.000  -0.000  -0.000  -0.000   0.000  -0.000
  0.000   0.000  -0.000  -0.000   0.000  -0.000   0.000  -0.000   0.000   0.000   3.378  -0.959   0.000   0.000   0.000  -0.000
  0.000  -0.000   0.000  -0.000   0.000   0.000  -0.000   0.000   0.000   0.000  -0.959   0.444   0.000  -0.000  -0.000   0.000
  0.000   0.000   0.000   0.050  -0.000  -0.000   0.000   0.000   0.204   0.000   0.000   0.000   1.921  -0.000   0.000  -0.312
  0.050   0.000  -0.000   0.000  -0.000   0.204   0.000  -0.000  -0.000  -0.000   0.000  -0.000  -0.000   1.921   0.000   0.000
  0.000   0.050  -0.000   0.000  -0.000   0.000   0.204   0.000   0.000  -0.000   0.000   0.000   0.000   0.000   1.921  -0.000
  0.000  -0.000  -0.000  -0.015  -0.000   0.000  -0.000  -0.000  -0.034  -0.000  -0.000   0.000  -0.312  -0.000  -0.000   0.058
 -0.015  -0.000   0.000   0.000   0.000  -0.034  -0.000   0.000   0.000   0.000   0.000   0.000   0.000  -0.312  -0.000  -0.000
  0.000  -0.015   0.000  -0.000  -0.000   0.000  -0.034  -0.000  -0.000   0.000   0.000  -0.000  -0.000   0.000  -0.312  -0.000


------------------------ aborting loop because EDIFF is reached ----------------------------------------


    CHARGE:  cpu time      0.2804: real time      0.2804
    FORLOC:  cpu time      0.0011: real time      0.0011
    FORNL :  cpu time      0.6404: real time      0.6406
    STRESS:  cpu time      1.8254: real time      1.8258
    FORCOR:  cpu time      0.0499: real time      0.0499
    FORHAR:  cpu time      0.0125: real time      0.0125
    MIXING:  cpu time      0.0010: real time      0.0010
    OFIELD:  cpu time      0.0000: real time      0.0000

  FORCE on cell =-STRESS in cart. coord.  units (eV):
  Direction    XX          YY          ZZ          XY          YZ          ZX
  --------------------------------------------------------------------------------------
  Alpha Z   123.61057   123.61057   123.61057
  Ewald    -882.12611  -882.12611  -882.12611    -0.00000    -0.00000     0.00000
  Hartree   513.44340   513.44340   513.44340     0.00000     0.00000     0.00000
  E(xc)    -164.60558  -164.60558  -164.60558     0.00001     0.00001     0.00001
  Local     -43.35975   -43.35975   -43.35975     0.00033     0.00033     0.00033
  n-local    57.90592    59.58360    53.09267     2.32202    -1.12645     0.20870
  augment   252.00136   252.00136   252.00136    -0.00027    -0.00027    -0.00027
  Kinetic   146.69101   145.68111   140.23528     4.32809    -1.13441     1.13321
  Fock        0.00000     0.00000     0.00000     0.00000     0.00000     0.00000
  -------------------------------------------------------------------------------------
  Total       0.02709     0.02709     0.02709     0.00000     0.00000     0.00000
  in kB       0.91550     0.91550     0.91550     0.00000     0.00000     0.00000
  external pressure =        0.92 kB  Pullay stress =        0.00 kB


 VOLUME and BASIS-vectors are now :
 -----------------------------------------------------------------------------
  energy-cutoff  :      450.00
  volume of cell :       47.40
      direct lattice vectors                 reciprocal lattice vectors
    -0.000000000  2.872507096  2.872507096    -0.174063974  0.174063974  0.174063974
     2.872507096 -0.000000000  2.872507096     0.174063974 -0.174063974  0.174063974
     2.872507096  2.872507096  0.000000000     0.174063974  0.174063974 -0.174063974

  length of vectors
     4.062338493  4.062338493  4.062338493     0.301487646  0.301487646  0.301487646


 FORCES acting on ions
    electron-ion (+dipol)            ewald-force                    non-local-force                 convergence-correction
 -----------------------------------------------------------------------------------------------
   -.526E-07 -.526E-07 0.424E-07   0.105E-12 -.120E-12 0.815E-13   0.367E-17 -.553E-16 0.230E-16   0.827E-08 0.827E-08 0.827E-08
   0.526E-07 0.526E-07 -.424E-07   -.106E-12 0.118E-12 -.830E-13   -.572E-16 -.364E-16 -.848E-16   -.827E-08 -.827E-08 -.827E-08
 -----------------------------------------------------------------------------------------------
   0.760E-11 0.153E-11 -.259E-12   -.640E-15 -.221E-14 -.150E-14   -.536E-16 -.917E-16 -.618E-16   -.420E-13 0.790E-13 0.655E-14


 POSITION                                       TOTAL-FORCE (eV/Angst)
 -----------------------------------------------------------------------------------
      5.02689      5.02689      5.02689         0.000000     -0.000000      0.000000
      0.71813      0.71813      0.71813        -0.000000      0.000000     -0.000000
 -----------------------------------------------------------------------------------
    total drift:                                0.000000      0.000000     -0.000000


--------------------------------------------------------------------------------------------------------



  FREE ENERGIE OF THE ION-ELECTRON SYSTEM (eV)
  ---------------------------------------------------
  free  energy   TOTEN  =        -9.03079394 eV

  energy  without entropy=       -9.03074628  energy(sigma->0) =       -9.03077011

 d Force = 0.0000000E+00[ 0.000E+00, 0.000E+00]  d Energy = 0.8568606E-04-0.857E-04
 d Force = 0.0000000E+00[ 0.000E+00, 0.000E+00]  d Ewald  =-0.1456155E+01 0.146E+01


--------------------------------------------------------------------------------------------------------


    POTLOK:  cpu time      0.1174: real time      0.1174


--------------------------------------------------------------------------------------------------------




--------------------------------------------------------------------------------------------------------


  
 reached required accuracy - stopping structural energy minimisation
     LOOP+:  cpu time     22.5874: real time     22.5920
    4ORBIT:  cpu time      0.0000: real time      0.0000

 total amount of memory used by VASP MPI-rank0    83645. kBytes
=======================================================================

   base      :      30000. kBytes
   nonl-proj :      17346. kBytes
   fftplans  :      13127. kBytes
   grid      :       5205. kBytes
   one-center:         31. kBytes
   wavefun   :      17936. kBytes

  
  
 General timing and accounting informations for this job:
 ========================================================
  
                  Total CPU time used (sec):      149.401
                            User time (sec):      140.465
                          System time (sec):        8.936
                         Elapsed time (sec):      149.737
  
                   Maximum memory used (kb):      148404.
                   Average memory used (kb):          N/A
  
                          Minor page faults:      1175595
                          Major page faults:          306
                 Voluntary context switches:         1347
