 vasp.6.3.2 27Jun22 (build Nov 28 2025 11:56:12) complex                         
 executed on             LinuxGNU date 2026.01.18  21:12:29
 running    2 mpi-ranks, with    1 threads/rank
 distrk:  each k-point on    2 cores,    1 groups
 distr:  one band on NCORE=   1 cores,    2 groups


--------------------------------------------------------------------------------------------------------


 INCAR:
   ISTART = 0            (not Read existing wavefunction, if there)
   ISPIN = 1            (Non-Spin polarised DFT)
   LREAL = .FALSE.       (Projection operators: automatic)
   ENCUT = 450          (Cut-off energy for plane wave basis set, in eV)
   PREC = Accurate     (Precision level: Normal or Accurate, set Accurate when perform structure lattice relaxation calculation)
   LWAVE = .FALSE.        (Write WAVECAR or not)
   LCHARG = .FALSE.        (Write CHGCAR or not)
   ADDGRID = .TRUE.        (Increase grid, helps GGA convergence)
   ALGO = N             (Electronic minimization algorithm: Normal, Fast, Damped, All, VeryFast)
   ISMEAR = 0            (Gaussian smearing, metals:1)
   SIGMA = 0.05         (Smearing value in eV, metals:0.2)
   NELM = 90           (Max electronic SCF steps)
   NELMIN = 6            (Min electronic SCF steps)
   EDIFF = 1E-06        (SCF energy convergence, in eV)
   NSW = 100          (Max ionic steps)
   IBRION = 2            (Algorithm: 0-MD, 1-Quasi-New, 2-CG)
   ISIF = 3            (Stress/relaxation: 2-Ions, 3-Shape/Ions/V, 4-Shape/Ions)
   EDIFFG = -2E-02        (Ionic convergence, eV/AA)

 POTCAR:    PAW_PBE Si 05Jan2001                  
 POTCAR:    PAW_PBE Si 05Jan2001                  
   VRHFIN =Si: s2p2                                                                                 
   LEXCH  = PE                                                                                      
   EATOM  =   103.0669 eV,    7.5752 Ry                                                             
                                                                                                    
   TITEL  = PAW_PBE Si 05Jan2001                                                                    
   LULTRA =        F    use ultrasoft PP ?                                                          
   IUNSCR =        1    unscreen: 0-lin 1-nonlin 2-no                                               
   RPACOR =    1.500    partial core radius                                                         
   POMASS =   28.085; ZVAL   =    4.000    mass and valenz                                          
   RCORE  =    1.900    outmost cutoff radius                                                       
   RWIGS  =    2.480; RWIGS  =    1.312    wigner-seitz radius (au A)                               
   ENMAX  =  245.345; ENMIN  =  184.009 eV                                                          
   ICORE  =        2    local potential                                                             
   LCOR   =        T    correct aug charges                                                         
   LPAW   =        T    paw PP                                                                      
   EAUG   =  322.069                                                                                
   DEXC   =    0.000                                                                                
   RMAX   =    1.950    core radius for proj-oper                                                   
   RAUG   =    1.300    factor for augmentation sphere                                              
   RDEP   =    1.993    radius for radial grids                                                     
   RDEPT  =    1.837    core radius for aug-charge                                                  
                                                                                                    
   Atomic configuration                                                                             
    6 entries                                                                                       
     n  l   j            E        occ.                                                              
     1  0  0.50     -1785.8828   2.0000                                                             
     2  0  0.50      -139.4969   2.0000                                                             
     2  1  1.50       -95.5546   6.0000                                                             
     3  0  0.50       -10.8127   2.0000                                                             
     3  1  0.50        -4.0811   2.0000                                                             
     3  2  1.50        -4.0817   0.0000                                                             
   Description                                                                                      
     l       E           TYP  RCUT    TYP  RCUT                                                     
     0    -10.8127223     23  1.900                                                                 
     0     -7.6451159     23  1.900                                                                 
     1     -4.0811372     23  1.900                                                                 
     1      2.4879257     23  1.900                                                                 
     2     -4.0817478      7  1.900                                                                 
  local pseudopotential read in
  partial core-charges read in
  partial kinetic energy density read in
  atomic valenz-charges read in
  non local Contribution for L=           0  read in
    real space projection operators read in
  non local Contribution for L=           0  read in
    real space projection operators read in
  non local Contribution for L=           1  read in
    real space projection operators read in
  non local Contribution for L=           1  read in
    real space projection operators read in
    PAW grid and wavefunctions read in

   number of l-projection  operators is LMAX  =           4
   number of lm-projection operators is LMMAX =           8

  PAW_PBE Si 05Jan2001                  :
 energy of atom  1       EATOM= -103.0669
 kinetic energy error for atom=    0.0009 (will be added to EATOM!!)


 POSCAR: cubic diamond Ge
  positions in direct lattice
  No initial velocities read in
 exchange correlation table for  LEXCH =        8
   RHO(1)=    0.500       N(1)  =     2000
   RHO(2)=  100.500       N(2)  =     4000



--------------------------------------------------------------------------------------------------------


 ion  position               nearest neighbor table
   1  0.875  0.875  0.875-   2 2.45   2 2.45   2 2.45   2 2.45
   2  0.125  0.125  0.125-   1 2.45   1 2.45   1 2.45   1 2.45

  LATTYP: Found a face centered cubic cell.
 ALAT       =     5.6575400000
  
  Lattice vectors:
  
 A1 = (   0.0000000000,   2.8287700000,   2.8287700000)
 A2 = (   2.8287700000,   0.0000000000,   2.8287700000)
 A3 = (   2.8287700000,   2.8287700000,   0.0000000000)


Analysis of symmetry for initial positions (statically):
=====================================================================
 Subroutine PRICEL returns:
 Original cell was already a primitive cell.
 

 Routine SETGRP: Setting up the symmetry group for a 
 face centered cubic supercell.


 Subroutine GETGRP returns: Found 48 space group operations
 (whereof 12 operations were pure point group operations)
 out of a pool of 48 trial point group operations.


The static configuration has the point symmetry D_3d.
 The point group associated with its full space group is O_h .


Analysis of symmetry for dynamics (positions and initial velocities):
=====================================================================
 Subroutine PRICEL returns:
 Original cell was already a primitive cell.
 

 Routine SETGRP: Setting up the symmetry group for a 
 face centered cubic supercell.


 Subroutine GETGRP returns: Found 48 space group operations
 (whereof 12 operations were pure point group operations)
 out of a pool of 48 trial point group operations.


The dynamic configuration has the point symmetry D_3d.
 The point group associated with its full space group is O_h .


 Subroutine INISYM returns: Found 48 space group operations
 (whereof 12 operations are pure point group operations),
 and found     1 'primitive' translations


----------------------------------------------------------------------------------------

                                     Primitive cell                                     

  volume of cell :      45.2713

  direct lattice vectors                    reciprocal lattice vectors
     0.000000000  2.828770000  2.828770000    -0.176755268  0.176755268  0.176755268
     2.828770000  0.000000000  2.828770000     0.176755268 -0.176755268  0.176755268
     2.828770000  2.828770000  0.000000000     0.176755268  0.176755268 -0.176755268

  length of vectors
     4.000484899  4.000484899  4.000484899     0.306149105  0.306149105  0.306149105

  position of ions in fractional coordinates (direct lattice)
     0.875000000  0.875000000  0.875000000
     0.125000000  0.125000000  0.125000000

  ion indices of the primitive-cell ions
   primitive index   ion index
                 1           1
                 2           2

----------------------------------------------------------------------------------------



 KPOINTS: K-Spacing Value to Generate K-Mesh: 0.02

Automatic generation of k-mesh.
 Grid dimensions read from file:
 generate k-points for:   15   15   15

 Generating k-lattice:

  Cartesian coordinates                     Fractional coordinates (reciprocal lattice)
    -0.011783685  0.011783685  0.011783685     0.066666667 -0.000000000  0.000000000
     0.011783685 -0.011783685  0.011783685    -0.000000000  0.066666667 -0.000000000
     0.011783685  0.011783685 -0.011783685     0.000000000  0.000000000  0.066666667

  Length of vectors
     0.020409940  0.020409940  0.020409940

  Shift w.r.t. Gamma in fractional coordinates (k-lattice)
     0.000000000  0.000000000  0.000000000

 
 Subroutine IBZKPT returns following result:
 ===========================================
 
 Found    120 irreducible k-points:
 
 Following reciprocal coordinates:
            Coordinates               Weight
  0.000000  0.000000  0.000000      1.000000
  0.066667  0.000000  0.000000      8.000000
  0.133333  0.000000  0.000000      8.000000
  0.200000  0.000000  0.000000      8.000000
  0.266667  0.000000  0.000000      8.000000
  0.333333  0.000000  0.000000      8.000000
  0.400000  0.000000  0.000000      8.000000
  0.466667  0.000000  0.000000      8.000000
  0.066667  0.066667  0.000000      6.000000
  0.133333  0.066667  0.000000     24.000000
  0.200000  0.066667  0.000000     24.000000
  0.266667  0.066667  0.000000     24.000000
  0.333333  0.066667  0.000000     24.000000
  0.400000  0.066667  0.000000     24.000000
  0.466667  0.066667  0.000000     24.000000
 -0.466667  0.066667  0.000000     24.000000
 -0.400000  0.066667  0.000000     24.000000
 -0.333333  0.066667  0.000000     24.000000
 -0.266667  0.066667  0.000000     24.000000
 -0.200000  0.066667  0.000000     24.000000
 -0.133333  0.066667  0.000000     24.000000
 -0.066667  0.066667  0.000000     12.000000
  0.133333  0.133333  0.000000      6.000000
  0.200000  0.133333  0.000000     24.000000
  0.266667  0.133333  0.000000     24.000000
  0.333333  0.133333  0.000000     24.000000
  0.400000  0.133333  0.000000     24.000000
  0.466667  0.133333  0.000000     24.000000
 -0.466667  0.133333  0.000000     24.000000
 -0.400000  0.133333  0.000000     24.000000
 -0.333333  0.133333  0.000000     24.000000
 -0.266667  0.133333  0.000000     24.000000
 -0.200000  0.133333  0.000000     24.000000
 -0.133333  0.133333  0.000000     12.000000
  0.200000  0.200000  0.000000      6.000000
  0.266667  0.200000  0.000000     24.000000
  0.333333  0.200000  0.000000     24.000000
  0.400000  0.200000  0.000000     24.000000
  0.466667  0.200000  0.000000     24.000000
 -0.466667  0.200000  0.000000     24.000000
 -0.400000  0.200000  0.000000     24.000000
 -0.333333  0.200000  0.000000     24.000000
 -0.266667  0.200000  0.000000     24.000000
 -0.200000  0.200000  0.000000     12.000000
  0.266667  0.266667  0.000000      6.000000
  0.333333  0.266667  0.000000     24.000000
  0.400000  0.266667  0.000000     24.000000
  0.466667  0.266667  0.000000     24.000000
 -0.466667  0.266667  0.000000     24.000000
 -0.400000  0.266667  0.000000     24.000000
 -0.333333  0.266667  0.000000     24.000000
 -0.266667  0.266667  0.000000     12.000000
  0.333333  0.333333  0.000000      6.000000
  0.400000  0.333333  0.000000     24.000000
  0.466667  0.333333  0.000000     24.000000
 -0.466667  0.333333  0.000000     24.000000
 -0.400000  0.333333  0.000000     24.000000
 -0.333333  0.333333  0.000000     12.000000
  0.400000  0.400000  0.000000      6.000000
  0.466667  0.400000  0.000000     24.000000
 -0.466667  0.400000  0.000000     24.000000
 -0.400000  0.400000  0.000000     12.000000
  0.466667  0.466667  0.000000      6.000000
 -0.466667  0.466667  0.000000     12.000000
  0.200000  0.133333  0.066667     24.000000
  0.266667  0.133333  0.066667     48.000000
  0.333333  0.133333  0.066667     48.000000
  0.400000  0.133333  0.066667     48.000000
  0.466667  0.133333  0.066667     48.000000
 -0.466667  0.133333  0.066667     48.000000
  0.266667  0.200000  0.066667     24.000000
  0.333333  0.200000  0.066667     48.000000
  0.400000  0.200000  0.066667     48.000000
  0.466667  0.200000  0.066667     48.000000
 -0.466667  0.200000  0.066667     48.000000
 -0.400000  0.200000  0.066667     48.000000
 -0.333333  0.200000  0.066667     48.000000
 -0.266667  0.200000  0.066667     48.000000
 -0.200000  0.200000  0.066667     48.000000
 -0.133333  0.200000  0.066667     24.000000
  0.333333  0.266667  0.066667     24.000000
  0.400000  0.266667  0.066667     48.000000
  0.466667  0.266667  0.066667     48.000000
 -0.466667  0.266667  0.066667     48.000000
 -0.400000  0.266667  0.066667     48.000000
 -0.333333  0.266667  0.066667     48.000000
 -0.266667  0.266667  0.066667     48.000000
 -0.200000  0.266667  0.066667     24.000000
  0.400000  0.333333  0.066667     24.000000
  0.466667  0.333333  0.066667     48.000000
 -0.466667  0.333333  0.066667     48.000000
 -0.400000  0.333333  0.066667     48.000000
 -0.333333  0.333333  0.066667     48.000000
 -0.266667  0.333333  0.066667     24.000000
  0.466667  0.400000  0.066667     24.000000
 -0.466667  0.400000  0.066667     48.000000
 -0.400000  0.400000  0.066667     48.000000
 -0.333333  0.400000  0.066667     24.000000
 -0.466667  0.466667  0.066667     24.000000
 -0.400000  0.466667  0.066667     24.000000
  0.400000  0.266667  0.133333     24.000000
  0.466667  0.266667  0.133333     48.000000
 -0.466667  0.266667  0.133333     48.000000
 -0.400000  0.266667  0.133333     48.000000
  0.466667  0.333333  0.133333     24.000000
 -0.466667  0.333333  0.133333     48.000000
 -0.400000  0.333333  0.133333     48.000000
 -0.333333  0.333333  0.133333     48.000000
 -0.266667  0.333333  0.133333     48.000000
 -0.200000  0.333333  0.133333     24.000000
 -0.466667  0.400000  0.133333     24.000000
 -0.400000  0.400000  0.133333     48.000000
 -0.333333  0.400000  0.133333     48.000000
 -0.266667  0.400000  0.133333     24.000000
 -0.400000  0.466667  0.133333     24.000000
 -0.333333  0.466667  0.133333     24.000000
 -0.400000  0.400000  0.200000     24.000000
 -0.333333  0.400000  0.200000     48.000000
 -0.333333  0.466667  0.200000     24.000000
 -0.266667  0.466667  0.200000     24.000000
 
 Following cartesian coordinates:
            Coordinates               Weight
  0.000000  0.000000  0.000000      1.000000
 -0.066667  0.066667  0.066667      8.000000
 -0.133333  0.133333  0.133333      8.000000
 -0.200000  0.200000  0.200000      8.000000
 -0.266667  0.266667  0.266667      8.000000
 -0.333333  0.333333  0.333333      8.000000
 -0.400000  0.400000  0.400000      8.000000
 -0.466667  0.466667  0.466667      8.000000
  0.000000  0.000000  0.133333      6.000000
 -0.066667  0.066667  0.200000     24.000000
 -0.133333  0.133333  0.266667     24.000000
 -0.200000  0.200000  0.333333     24.000000
 -0.266667  0.266667  0.400000     24.000000
 -0.333333  0.333333  0.466667     24.000000
 -0.400000  0.400000  0.533333     24.000000
  0.533333 -0.533333 -0.400000     24.000000
  0.466667 -0.466667 -0.333333     24.000000
  0.400000 -0.400000 -0.266667     24.000000
  0.333333 -0.333333 -0.200000     24.000000
  0.266667 -0.266667 -0.133333     24.000000
  0.200000 -0.200000 -0.066667     24.000000
  0.133333 -0.133333  0.000000     12.000000
  0.000000  0.000000  0.266667      6.000000
 -0.066667  0.066667  0.333333     24.000000
 -0.133333  0.133333  0.400000     24.000000
 -0.200000  0.200000  0.466667     24.000000
 -0.266667  0.266667  0.533333     24.000000
 -0.333333  0.333333  0.600000     24.000000
  0.600000 -0.600000 -0.333333     24.000000
  0.533333 -0.533333 -0.266667     24.000000
  0.466667 -0.466667 -0.200000     24.000000
  0.400000 -0.400000 -0.133333     24.000000
  0.333333 -0.333333 -0.066667     24.000000
  0.266667 -0.266667  0.000000     12.000000
  0.000000  0.000000  0.400000      6.000000
 -0.066667  0.066667  0.466667     24.000000
 -0.133333  0.133333  0.533333     24.000000
 -0.200000  0.200000  0.600000     24.000000
 -0.266667  0.266667  0.666667     24.000000
  0.666667 -0.666667 -0.266667     24.000000
  0.600000 -0.600000 -0.200000     24.000000
  0.533333 -0.533333 -0.133333     24.000000
  0.466667 -0.466667 -0.066667     24.000000
  0.400000 -0.400000  0.000000     12.000000
  0.000000  0.000000  0.533333      6.000000
 -0.066667  0.066667  0.600000     24.000000
 -0.133333  0.133333  0.666667     24.000000
 -0.200000  0.200000  0.733333     24.000000
  0.733333 -0.733333 -0.200000     24.000000
  0.666667 -0.666667 -0.133333     24.000000
  0.600000 -0.600000 -0.066667     24.000000
  0.533333 -0.533333  0.000000     12.000000
  0.000000  0.000000  0.666667      6.000000
 -0.066667  0.066667  0.733333     24.000000
 -0.133333  0.133333  0.800000     24.000000
  0.800000 -0.800000 -0.133333     24.000000
  0.733333 -0.733333 -0.066667     24.000000
  0.666667 -0.666667  0.000000     12.000000
  0.000000  0.000000  0.800000      6.000000
 -0.066667  0.066667  0.866667     24.000000
  0.866667 -0.866667 -0.066667     24.000000
  0.800000 -0.800000  0.000000     12.000000
  0.000000  0.000000  0.933333      6.000000
  0.933333 -0.933333  0.000000     12.000000
  0.000000  0.133333  0.266667     24.000000
 -0.066667  0.200000  0.333333     48.000000
 -0.133333  0.266667  0.400000     48.000000
 -0.200000  0.333333  0.466667     48.000000
 -0.266667  0.400000  0.533333     48.000000
  0.666667 -0.533333 -0.400000     48.000000
  0.000000  0.133333  0.400000     24.000000
 -0.066667  0.200000  0.466667     48.000000
 -0.133333  0.266667  0.533333     48.000000
 -0.200000  0.333333  0.600000     48.000000
  0.733333 -0.600000 -0.333333     48.000000
  0.666667 -0.533333 -0.266667     48.000000
  0.600000 -0.466667 -0.200000     48.000000
  0.533333 -0.400000 -0.133333     48.000000
  0.466667 -0.333333 -0.066667     48.000000
  0.400000 -0.266667  0.000000     24.000000
  0.000000  0.133333  0.533333     24.000000
 -0.066667  0.200000  0.600000     48.000000
 -0.133333  0.266667  0.666667     48.000000
  0.800000 -0.666667 -0.266667     48.000000
  0.733333 -0.600000 -0.200000     48.000000
  0.666667 -0.533333 -0.133333     48.000000
  0.600000 -0.466667 -0.066667     48.000000
  0.533333 -0.400000 -0.000000     24.000000
  0.000000  0.133333  0.666667     24.000000
 -0.066667  0.200000  0.733333     48.000000
  0.866667 -0.733333 -0.200000     48.000000
  0.800000 -0.666667 -0.133333     48.000000
  0.733333 -0.600000 -0.066667     48.000000
  0.666667 -0.533333  0.000000     24.000000
  0.000000  0.133333  0.800000     24.000000
  0.933333 -0.800000 -0.133333     48.000000
  0.866667 -0.733333 -0.066667     48.000000
  0.800000 -0.666667 -0.000000     24.000000
  1.000000 -0.866667 -0.066667     24.000000
  0.933333 -0.800000  0.000000     24.000000
  0.000000  0.266667  0.533333     24.000000
 -0.066667  0.333333  0.600000     48.000000
  0.866667 -0.600000 -0.333333     48.000000
  0.800000 -0.533333 -0.266667     48.000000
  0.000000  0.266667  0.666667     24.000000
  0.933333 -0.666667 -0.266667     48.000000
  0.866667 -0.600000 -0.200000     48.000000
  0.800000 -0.533333 -0.133333     48.000000
  0.733333 -0.466667 -0.066667     48.000000
  0.666667 -0.400000  0.000000     24.000000
  1.000000 -0.733333 -0.200000     24.000000
  0.933333 -0.666667 -0.133333     48.000000
  0.866667 -0.600000 -0.066667     48.000000
  0.800000 -0.533333  0.000000     24.000000
  1.000000 -0.733333 -0.066667     24.000000
  0.933333 -0.666667  0.000000     24.000000
  1.000000 -0.600000 -0.200000     24.000000
  0.933333 -0.533333 -0.133333     48.000000
  1.000000 -0.600000 -0.066667     24.000000
  0.933333 -0.533333  0.000000     24.000000
 


--------------------------------------------------------------------------------------------------------




 Dimension of arrays:
   k-points           NKPTS =    120   k-points in BZ     NKDIM =    120   number of bands    NBANDS=      8
   number of dos      NEDOS =    301   number of ions     NIONS =      2
   non local maximal  LDIM  =      4   non local SUM 2l+1 LMDIM =      8
   total plane-waves  NPLWV =  21952
   max r-space proj   IRMAX =      1   max aug-charges    IRDMAX= 129885
   dimension x,y,z NGX =    28 NGY =   28 NGZ =   28
   dimension x,y,z NGXF=    56 NGYF=   56 NGZF=   56
   support grid    NGXF=   112 NGYF=  112 NGZF=  112
   ions per type =               2
   NGX,Y,Z   is equivalent  to a cutoff of  11.64, 11.64, 11.64 a.u.
   NGXF,Y,Z  is equivalent  to a cutoff of  23.27, 23.27, 23.27 a.u.

 SYSTEM =  unknown system                          
 POSCAR =  cubic diamond Ge                        

 Startparameter for this run:
   NWRITE =      2    write-flag & timer
   PREC   = accura    normal or accurate (medium, high low for compatibility)
   ISTART =      0    job   : 0-new  1-cont  2-samecut
   ICHARG =      2    charge: 1-file 2-atom 10-const
   ISPIN  =      1    spin polarized calculation?
   LNONCOLLINEAR =      F non collinear calculations
   LSORBIT =      F    spin-orbit coupling
   INIWAV =      1    electr: 0-lowe 1-rand  2-diag
   LASPH  =      F    aspherical Exc in radial PAW
 Electronic Relaxation 1
   ENCUT  =  450.0 eV  33.07 Ry    5.75 a.u.   6.92  6.92  6.92*2*pi/ulx,y,z
   ENINI  =  450.0     initial cutoff
   ENAUG  =  322.1 eV  augmentation charge cutoff
   NELM   =     90;   NELMIN=  6; NELMDL= -5     # of ELM steps 
   EDIFF  = 0.1E-05   stopping-criterion for ELM
   LREAL  =      F    real-space projection
   NLSPLINE    = F    spline interpolate recip. space projectors
   LCOMPAT=      F    compatible to vasp.4.4
   GGA_COMPAT  = T    GGA compatible to vasp.4.4-vasp.4.6
   LMAXPAW     = -100 max onsite density
   LMAXMIX     =    2 max onsite mixed and CHGCAR
   VOSKOWN=      0    Vosko Wilk Nusair interpolation
   ROPT   =    0.00000
 Ionic relaxation
   EDIFFG = -.2E-01   stopping-criterion for IOM
   NSW    =    100    number of steps for IOM
   NBLOCK =      1;   KBLOCK =    100    inner block; outer block 
   IBRION =      2    ionic relax: 0-MD 1-quasi-New 2-CG
   NFREE  =      1    steps in history (QN), initial steepest desc. (CG)
   ISIF   =      3    stress and relaxation
   IWAVPR =     11    prediction:  0-non 1-charg 2-wave 3-comb
   ISYM   =      2    0-nonsym 1-usesym 2-fastsym
   LCORR  =      T    Harris-Foulkes like correction to forces

   POTIM  = 0.5000    time-step for ionic-motion
   TEIN   =    0.0    initial temperature
   TEBEG  =    0.0;   TEEND  =   0.0 temperature during run
   SMASS  =  -3.00    Nose mass-parameter (am)
   estimated Nose-frequenzy (Omega)   =  0.10E-29 period in steps = 0.13E+47 mass=  -0.366E-27a.u.
   SCALEE = 1.0000    scale energy and forces
   NPACO  =    256;   APACO  = 10.0  distance and # of slots for P.C.
   PSTRESS=    0.0 pullay stress

  Mass of Ions in am
   POMASS =  28.09
  Ionic Valenz
   ZVAL   =   4.00
  Atomic Wigner-Seitz radii
   RWIGS  =  -1.00
  virtual crystal weights 
   VCA    =   1.00
   NELECT =       8.0000    total number of electrons
   NUPDOWN=      -1.0000    fix difference up-down

 DOS related values:
   EMIN   =  10.00;   EMAX   =-10.00  energy-range for DOS
   EFERMI =   0.00
   ISMEAR =     0;   SIGMA  =   0.05  broadening in eV -4-tet -1-fermi 0-gaus

 Electronic relaxation 2 (details)
   IALGO  =     38    algorithm
   LDIAG  =      T    sub-space diagonalisation (order eigenvalues)
   LSUBROT=      F    optimize rotation matrix (better conditioning)
   TURBO    =      0    0=normal 1=particle mesh
   IRESTART =      0    0=no restart 2=restart with 2 vectors
   NREBOOT  =      0    no. of reboots
   NMIN     =      0    reboot dimension
   EREF     =   0.00    reference energy to select bands
   IMIX   =      4    mixing-type and parameters
     AMIX     =   0.40;   BMIX     =  1.00
     AMIX_MAG =   1.60;   BMIX_MAG =  1.00
     AMIN     =   0.10
     WC   =   100.;   INIMIX=   1;  MIXPRE=   1;  MAXMIX= -45

 Intra band minimization:
   WEIMIN = 0.0010     energy-eigenvalue tresh-hold
   EBREAK =  0.31E-07  absolut break condition
   DEPER  =   0.30     relativ break condition  

   TIME   =   0.40     timestep for ELM

  volume/ion in A,a.u.               =      22.64       152.75
  Fermi-wavevector in a.u.,A,eV,Ry     =   0.918679  1.736052 11.482928  0.843971
  Thomas-Fermi vector in A             =   2.043788

 Write flags
   LWAVE        =      F    write WAVECAR
   LDOWNSAMPLE  =      F    k-point downsampling of WAVECAR
   LCHARG       =      F    write CHGCAR
   LVTOT        =      F    write LOCPOT, total local potential
   LVHAR        =      F    write LOCPOT, Hartree potential only
   LELF         =      F    write electronic localiz. function (ELF)
   LORBIT       =      0    0 simple, 1 ext, 2 COOP (PROOUT), +10 PAW based schemes


 Dipole corrections
   LMONO  =      F    monopole corrections only (constant potential shift)
   LDIPOL =      F    correct potential (dipole corrections)
   IDIPOL =      0    1-x, 2-y, 3-z, 4-all directions 
   EPSILON=  1.0000000 bulk dielectric constant

 Exchange correlation treatment:
   GGA     =    --    GGA type
   LEXCH   =     8    internal setting for exchange type
   LIBXC   =     F    Libxc                    
   VOSKOWN =     0    Vosko Wilk Nusair interpolation
   LHFCALC =     F    Hartree Fock is set to
   LHFONE  =     F    Hartree Fock one center treatment
   AEXX    =    0.0000 exact exchange contribution

 Linear response parameters
   LEPSILON=     F    determine dielectric tensor
   LRPA    =     F    only Hartree local field effects (RPA)
   LNABLA  =     F    use nabla operator in PAW spheres
   LVEL    =     F    velocity operator in full k-point grid
   CSHIFT  =0.1000    complex shift for real part using Kramers Kronig
   OMEGAMAX=  -1.0    maximum frequency
   DEG_THRESHOLD= 0.2000000E-02 threshold for treating states as degnerate
   RTIME   =   -0.100 relaxation time in fs
  (WPLASMAI=    0.000 imaginary part of plasma frequency in eV, 0.658/RTIME)
   DFIELD  = 0.0000000 0.0000000 0.0000000 field for delta impulse in time

  Optional k-point grid parameters
   LKPOINTS_OPT  =     F    use optional k-point grid
   KPOINTS_OPT_MODE=     1    mode for optional k-point grid

 Orbital magnetization related:
   ORBITALMAG=     F  switch on orbital magnetization
   LCHIMAG   =     F  perturbation theory with respect to B field
   DQ        =  0.001000  dq finite difference perturbation B field
   LLRAUG    =     F  two centre corrections for induced B field



--------------------------------------------------------------------------------------------------------


 conjugate gradient relaxation of ions
 charge density and potential will be updated during run
 non-spin polarized calculation
 Variant of blocked Davidson
 Davidson routine will perform the subspace rotation
 perform sub-space diagonalisation
    after iterative eigenvector-optimisation
 modified Broyden-mixing scheme, WC =      100.0
 initial mixing is a Kerker type mixing with AMIX =  0.4000 and BMIX =      1.0000
 Hartree-type preconditioning will be used
 using additional bands            4
 reciprocal scheme for non local part
 use partial core corrections
 calculate Harris-corrections to forces   (improved forces if not selfconsistent)
 use gradient corrections 
 use of overlap-Matrix (Vanderbilt PP)
 Gauss-broadening in eV      SIGMA  =   0.05


--------------------------------------------------------------------------------------------------------


  energy-cutoff  :      450.00
  volume of cell :       45.27
      direct lattice vectors                 reciprocal lattice vectors
     0.000000000  2.828770000  2.828770000    -0.176755268  0.176755268  0.176755268
     2.828770000  0.000000000  2.828770000     0.176755268 -0.176755268  0.176755268
     2.828770000  2.828770000  0.000000000     0.176755268  0.176755268 -0.176755268

  length of vectors
     4.000484899  4.000484899  4.000484899     0.306149105  0.306149105  0.306149105



 k-points in units of 2pi/SCALE and weight: K-Spacing Value to Generate K-Mesh: 0.02
   0.00000000  0.00000000  0.00000000       0.000
  -0.06666667  0.06666667  0.06666667       0.002
  -0.13333333  0.13333333  0.13333333       0.002
  -0.20000000  0.20000000  0.20000000       0.002
  -0.26666667  0.26666667  0.26666667       0.002
  -0.33333333  0.33333333  0.33333333       0.002
  -0.40000000  0.40000000  0.40000000       0.002
  -0.46666667  0.46666667  0.46666667       0.002
   0.00000000  0.00000000  0.13333333       0.002
  -0.06666667  0.06666667  0.20000000       0.007
  -0.13333333  0.13333333  0.26666667       0.007
  -0.20000000  0.20000000  0.33333333       0.007
  -0.26666667  0.26666667  0.40000000       0.007
  -0.33333333  0.33333333  0.46666667       0.007
  -0.40000000  0.40000000  0.53333333       0.007
   0.53333333 -0.53333333 -0.40000000       0.007
   0.46666667 -0.46666667 -0.33333333       0.007
   0.40000000 -0.40000000 -0.26666667       0.007
   0.33333333 -0.33333333 -0.20000000       0.007
   0.26666667 -0.26666667 -0.13333333       0.007
   0.20000000 -0.20000000 -0.06666667       0.007
   0.13333333 -0.13333333  0.00000000       0.004
   0.00000000  0.00000000  0.26666667       0.002
  -0.06666667  0.06666667  0.33333333       0.007
  -0.13333333  0.13333333  0.40000000       0.007
  -0.20000000  0.20000000  0.46666667       0.007
  -0.26666667  0.26666667  0.53333333       0.007
  -0.33333333  0.33333333  0.60000000       0.007
   0.60000000 -0.60000000 -0.33333333       0.007
   0.53333333 -0.53333333 -0.26666667       0.007
   0.46666667 -0.46666667 -0.20000000       0.007
   0.40000000 -0.40000000 -0.13333333       0.007
   0.33333333 -0.33333333 -0.06666667       0.007
   0.26666667 -0.26666667  0.00000000       0.004
   0.00000000  0.00000000  0.40000000       0.002
  -0.06666667  0.06666667  0.46666667       0.007
  -0.13333333  0.13333333  0.53333333       0.007
  -0.20000000  0.20000000  0.60000000       0.007
  -0.26666667  0.26666667  0.66666667       0.007
   0.66666667 -0.66666667 -0.26666667       0.007
   0.60000000 -0.60000000 -0.20000000       0.007
   0.53333333 -0.53333333 -0.13333333       0.007
   0.46666667 -0.46666667 -0.06666667       0.007
   0.40000000 -0.40000000  0.00000000       0.004
   0.00000000  0.00000000  0.53333333       0.002
  -0.06666667  0.06666667  0.60000000       0.007
  -0.13333333  0.13333333  0.66666667       0.007
  -0.20000000  0.20000000  0.73333333       0.007
   0.73333333 -0.73333333 -0.20000000       0.007
   0.66666667 -0.66666667 -0.13333333       0.007
   0.60000000 -0.60000000 -0.06666667       0.007
   0.53333333 -0.53333333  0.00000000       0.004
   0.00000000  0.00000000  0.66666667       0.002
  -0.06666667  0.06666667  0.73333333       0.007
  -0.13333333  0.13333333  0.80000000       0.007
   0.80000000 -0.80000000 -0.13333333       0.007
   0.73333333 -0.73333333 -0.06666667       0.007
   0.66666667 -0.66666667  0.00000000       0.004
   0.00000000  0.00000000  0.80000000       0.002
  -0.06666667  0.06666667  0.86666667       0.007
   0.86666667 -0.86666667 -0.06666667       0.007
   0.80000000 -0.80000000  0.00000000       0.004
   0.00000000  0.00000000  0.93333333       0.002
   0.93333333 -0.93333333  0.00000000       0.004
   0.00000000  0.13333333  0.26666667       0.007
  -0.06666667  0.20000000  0.33333333       0.014
  -0.13333333  0.26666667  0.40000000       0.014
  -0.20000000  0.33333333  0.46666667       0.014
  -0.26666667  0.40000000  0.53333333       0.014
   0.66666667 -0.53333333 -0.40000000       0.014
   0.00000000  0.13333333  0.40000000       0.007
  -0.06666667  0.20000000  0.46666667       0.014
  -0.13333333  0.26666667  0.53333333       0.014
  -0.20000000  0.33333333  0.60000000       0.014
   0.73333333 -0.60000000 -0.33333333       0.014
   0.66666667 -0.53333333 -0.26666667       0.014
   0.60000000 -0.46666667 -0.20000000       0.014
   0.53333333 -0.40000000 -0.13333333       0.014
   0.46666667 -0.33333333 -0.06666667       0.014
   0.40000000 -0.26666667  0.00000000       0.007
   0.00000000  0.13333333  0.53333333       0.007
  -0.06666667  0.20000000  0.60000000       0.014
  -0.13333333  0.26666667  0.66666667       0.014
   0.80000000 -0.66666667 -0.26666667       0.014
   0.73333333 -0.60000000 -0.20000000       0.014
   0.66666667 -0.53333333 -0.13333333       0.014
   0.60000000 -0.46666667 -0.06666667       0.014
   0.53333333 -0.40000000 -0.00000000       0.007
   0.00000000  0.13333333  0.66666667       0.007
  -0.06666667  0.20000000  0.73333333       0.014
   0.86666667 -0.73333333 -0.20000000       0.014
   0.80000000 -0.66666667 -0.13333333       0.014
   0.73333333 -0.60000000 -0.06666667       0.014
   0.66666667 -0.53333333  0.00000000       0.007
   0.00000000  0.13333333  0.80000000       0.007
   0.93333333 -0.80000000 -0.13333333       0.014
   0.86666667 -0.73333333 -0.06666667       0.014
   0.80000000 -0.66666667 -0.00000000       0.007
   1.00000000 -0.86666667 -0.06666667       0.007
   0.93333333 -0.80000000  0.00000000       0.007
   0.00000000  0.26666667  0.53333333       0.007
  -0.06666667  0.33333333  0.60000000       0.014
   0.86666667 -0.60000000 -0.33333333       0.014
   0.80000000 -0.53333333 -0.26666667       0.014
   0.00000000  0.26666667  0.66666667       0.007
   0.93333333 -0.66666667 -0.26666667       0.014
   0.86666667 -0.60000000 -0.20000000       0.014
   0.80000000 -0.53333333 -0.13333333       0.014
   0.73333333 -0.46666667 -0.06666667       0.014
   0.66666667 -0.40000000  0.00000000       0.007
   1.00000000 -0.73333333 -0.20000000       0.007
   0.93333333 -0.66666667 -0.13333333       0.014
   0.86666667 -0.60000000 -0.06666667       0.014
   0.80000000 -0.53333333  0.00000000       0.007
   1.00000000 -0.73333333 -0.06666667       0.007
   0.93333333 -0.66666667  0.00000000       0.007
   1.00000000 -0.60000000 -0.20000000       0.007
   0.93333333 -0.53333333 -0.13333333       0.014
   1.00000000 -0.60000000 -0.06666667       0.007
   0.93333333 -0.53333333  0.00000000       0.007

 k-points in reciprocal lattice and weights: K-Spacing Value to Generate K-Mesh: 0.02
   0.00000000  0.00000000  0.00000000       0.000
   0.06666667  0.00000000  0.00000000       0.002
   0.13333333  0.00000000  0.00000000       0.002
   0.20000000  0.00000000  0.00000000       0.002
   0.26666667  0.00000000  0.00000000       0.002
   0.33333333  0.00000000  0.00000000       0.002
   0.40000000  0.00000000  0.00000000       0.002
   0.46666667  0.00000000  0.00000000       0.002
   0.06666667  0.06666667  0.00000000       0.002
   0.13333333  0.06666667  0.00000000       0.007
   0.20000000  0.06666667  0.00000000       0.007
   0.26666667  0.06666667  0.00000000       0.007
   0.33333333  0.06666667  0.00000000       0.007
   0.40000000  0.06666667  0.00000000       0.007
   0.46666667  0.06666667  0.00000000       0.007
  -0.46666667  0.06666667  0.00000000       0.007
  -0.40000000  0.06666667  0.00000000       0.007
  -0.33333333  0.06666667  0.00000000       0.007
  -0.26666667  0.06666667  0.00000000       0.007
  -0.20000000  0.06666667  0.00000000       0.007
  -0.13333333  0.06666667  0.00000000       0.007
  -0.06666667  0.06666667  0.00000000       0.004
   0.13333333  0.13333333  0.00000000       0.002
   0.20000000  0.13333333  0.00000000       0.007
   0.26666667  0.13333333  0.00000000       0.007
   0.33333333  0.13333333  0.00000000       0.007
   0.40000000  0.13333333  0.00000000       0.007
   0.46666667  0.13333333  0.00000000       0.007
  -0.46666667  0.13333333  0.00000000       0.007
  -0.40000000  0.13333333  0.00000000       0.007
  -0.33333333  0.13333333  0.00000000       0.007
  -0.26666667  0.13333333  0.00000000       0.007
  -0.20000000  0.13333333  0.00000000       0.007
  -0.13333333  0.13333333  0.00000000       0.004
   0.20000000  0.20000000  0.00000000       0.002
   0.26666667  0.20000000  0.00000000       0.007
   0.33333333  0.20000000  0.00000000       0.007
   0.40000000  0.20000000  0.00000000       0.007
   0.46666667  0.20000000  0.00000000       0.007
  -0.46666667  0.20000000  0.00000000       0.007
  -0.40000000  0.20000000  0.00000000       0.007
  -0.33333333  0.20000000  0.00000000       0.007
  -0.26666667  0.20000000  0.00000000       0.007
  -0.20000000  0.20000000  0.00000000       0.004
   0.26666667  0.26666667  0.00000000       0.002
   0.33333333  0.26666667  0.00000000       0.007
   0.40000000  0.26666667  0.00000000       0.007
   0.46666667  0.26666667  0.00000000       0.007
  -0.46666667  0.26666667  0.00000000       0.007
  -0.40000000  0.26666667  0.00000000       0.007
  -0.33333333  0.26666667  0.00000000       0.007
  -0.26666667  0.26666667  0.00000000       0.004
   0.33333333  0.33333333  0.00000000       0.002
   0.40000000  0.33333333  0.00000000       0.007
   0.46666667  0.33333333  0.00000000       0.007
  -0.46666667  0.33333333  0.00000000       0.007
  -0.40000000  0.33333333  0.00000000       0.007
  -0.33333333  0.33333333  0.00000000       0.004
   0.40000000  0.40000000  0.00000000       0.002
   0.46666667  0.40000000  0.00000000       0.007
  -0.46666667  0.40000000  0.00000000       0.007
  -0.40000000  0.40000000  0.00000000       0.004
   0.46666667  0.46666667  0.00000000       0.002
  -0.46666667  0.46666667  0.00000000       0.004
   0.20000000  0.13333333  0.06666667       0.007
   0.26666667  0.13333333  0.06666667       0.014
   0.33333333  0.13333333  0.06666667       0.014
   0.40000000  0.13333333  0.06666667       0.014
   0.46666667  0.13333333  0.06666667       0.014
  -0.46666667  0.13333333  0.06666667       0.014
   0.26666667  0.20000000  0.06666667       0.007
   0.33333333  0.20000000  0.06666667       0.014
   0.40000000  0.20000000  0.06666667       0.014
   0.46666667  0.20000000  0.06666667       0.014
  -0.46666667  0.20000000  0.06666667       0.014
  -0.40000000  0.20000000  0.06666667       0.014
  -0.33333333  0.20000000  0.06666667       0.014
  -0.26666667  0.20000000  0.06666667       0.014
  -0.20000000  0.20000000  0.06666667       0.014
  -0.13333333  0.20000000  0.06666667       0.007
   0.33333333  0.26666667  0.06666667       0.007
   0.40000000  0.26666667  0.06666667       0.014
   0.46666667  0.26666667  0.06666667       0.014
  -0.46666667  0.26666667  0.06666667       0.014
  -0.40000000  0.26666667  0.06666667       0.014
  -0.33333333  0.26666667  0.06666667       0.014
  -0.26666667  0.26666667  0.06666667       0.014
  -0.20000000  0.26666667  0.06666667       0.007
   0.40000000  0.33333333  0.06666667       0.007
   0.46666667  0.33333333  0.06666667       0.014
  -0.46666667  0.33333333  0.06666667       0.014
  -0.40000000  0.33333333  0.06666667       0.014
  -0.33333333  0.33333333  0.06666667       0.014
  -0.26666667  0.33333333  0.06666667       0.007
   0.46666667  0.40000000  0.06666667       0.007
  -0.46666667  0.40000000  0.06666667       0.014
  -0.40000000  0.40000000  0.06666667       0.014
  -0.33333333  0.40000000  0.06666667       0.007
  -0.46666667  0.46666667  0.06666667       0.007
  -0.40000000  0.46666667  0.06666667       0.007
   0.40000000  0.26666667  0.13333333       0.007
   0.46666667  0.26666667  0.13333333       0.014
  -0.46666667  0.26666667  0.13333333       0.014
  -0.40000000  0.26666667  0.13333333       0.014
   0.46666667  0.33333333  0.13333333       0.007
  -0.46666667  0.33333333  0.13333333       0.014
  -0.40000000  0.33333333  0.13333333       0.014
  -0.33333333  0.33333333  0.13333333       0.014
  -0.26666667  0.33333333  0.13333333       0.014
  -0.20000000  0.33333333  0.13333333       0.007
  -0.46666667  0.40000000  0.13333333       0.007
  -0.40000000  0.40000000  0.13333333       0.014
  -0.33333333  0.40000000  0.13333333       0.014
  -0.26666667  0.40000000  0.13333333       0.007
  -0.40000000  0.46666667  0.13333333       0.007
  -0.33333333  0.46666667  0.13333333       0.007
  -0.40000000  0.40000000  0.20000000       0.007
  -0.33333333  0.40000000  0.20000000       0.014
  -0.33333333  0.46666667  0.20000000       0.007
  -0.26666667  0.46666667  0.20000000       0.007

 position of ions in fractional coordinates (direct lattice) 
   0.87500000  0.87500000  0.87500000
   0.12500000  0.12500000  0.12500000

 position of ions in cartesian coordinates  (Angst):
   4.95034750  4.95034750  4.95034750
   0.70719250  0.70719250  0.70719250



--------------------------------------------------------------------------------------------------------


 k-point   1 :   0.0000 0.0000 0.0000  plane waves:     941
 k-point   2 :   0.0667 0.0000 0.0000  plane waves:     950
 k-point   3 :   0.1333 0.0000 0.0000  plane waves:     962
 k-point   4 :   0.2000 0.0000 0.0000  plane waves:     968
 k-point   5 :   0.2667 0.0000 0.0000  plane waves:     974
 k-point   6 :   0.3333 0.0000 0.0000  plane waves:     968
 k-point   7 :   0.4000 0.0000 0.0000  plane waves:     990
 k-point   8 :   0.4667 0.0000 0.0000  plane waves:     978
 k-point   9 :   0.0667 0.0667 0.0000  plane waves:     953
 k-point  10 :   0.1333 0.0667 0.0000  plane waves:     961
 k-point  11 :   0.2000 0.0667 0.0000  plane waves:     969
 k-point  12 :   0.2667 0.0667 0.0000  plane waves:     969
 k-point  13 :   0.3333 0.0667 0.0000  plane waves:     974
 k-point  14 :   0.4000 0.0667 0.0000  plane waves:     980
 k-point  15 :   0.4667 0.0667 0.0000  plane waves:     983
 k-point  16 :  -0.4667 0.0667 0.0000  plane waves:     986
 k-point  17 :  -0.4000 0.0667 0.0000  plane waves:     981
 k-point  18 :  -0.3333 0.0667 0.0000  plane waves:     983
 k-point  19 :  -0.2667 0.0667 0.0000  plane waves:     973
 k-point  20 :  -0.2000 0.0667 0.0000  plane waves:     972
 k-point  21 :  -0.1333 0.0667 0.0000  plane waves:     969
 k-point  22 :  -0.0667 0.0667 0.0000  plane waves:     953
 k-point  23 :   0.1333 0.1333 0.0000  plane waves:     962
 k-point  24 :   0.2000 0.1333 0.0000  plane waves:     973
 k-point  25 :   0.2667 0.1333 0.0000  plane waves:     978
 k-point  26 :   0.3333 0.1333 0.0000  plane waves:     978
 k-point  27 :   0.4000 0.1333 0.0000  plane waves:     988
 k-point  28 :   0.4667 0.1333 0.0000  plane waves:     987
 k-point  29 :  -0.4667 0.1333 0.0000  plane waves:     986
 k-point  30 :  -0.4000 0.1333 0.0000  plane waves:     982
 k-point  31 :  -0.3333 0.1333 0.0000  plane waves:     981
 k-point  32 :  -0.2667 0.1333 0.0000  plane waves:     973
 k-point  33 :  -0.2000 0.1333 0.0000  plane waves:     977
 k-point  34 :  -0.1333 0.1333 0.0000  plane waves:     963
 k-point  35 :   0.2000 0.2000 0.0000  plane waves:     978
 k-point  36 :   0.2667 0.2000 0.0000  plane waves:     986
 k-point  37 :   0.3333 0.2000 0.0000  plane waves:     982
 k-point  38 :   0.4000 0.2000 0.0000  plane waves:     986
 k-point  39 :   0.4667 0.2000 0.0000  plane waves:     988
 k-point  40 :  -0.4667 0.2000 0.0000  plane waves:     986
 k-point  41 :  -0.4000 0.2000 0.0000  plane waves:     983
 k-point  42 :  -0.3333 0.2000 0.0000  plane waves:     984
 k-point  43 :  -0.2667 0.2000 0.0000  plane waves:     981
 k-point  44 :  -0.2000 0.2000 0.0000  plane waves:     973
 k-point  45 :   0.2667 0.2667 0.0000  plane waves:     990
 k-point  46 :   0.3333 0.2667 0.0000  plane waves:     984
 k-point  47 :   0.4000 0.2667 0.0000  plane waves:     988
 k-point  48 :   0.4667 0.2667 0.0000  plane waves:     988
 k-point  49 :  -0.4667 0.2667 0.0000  plane waves:     985
 k-point  50 :  -0.4000 0.2667 0.0000  plane waves:     977
 k-point  51 :  -0.3333 0.2667 0.0000  plane waves:     985
 k-point  52 :  -0.2667 0.2667 0.0000  plane waves:     975
 k-point  53 :   0.3333 0.3333 0.0000  plane waves:    1002
 k-point  54 :   0.4000 0.3333 0.0000  plane waves:     987
 k-point  55 :   0.4667 0.3333 0.0000  plane waves:     988
 k-point  56 :  -0.4667 0.3333 0.0000  plane waves:     979
 k-point  57 :  -0.4000 0.3333 0.0000  plane waves:     981
 k-point  58 :  -0.3333 0.3333 0.0000  plane waves:     981
 k-point  59 :   0.4000 0.4000 0.0000  plane waves:     990
 k-point  60 :   0.4667 0.4000 0.0000  plane waves:     989
 k-point  61 :  -0.4667 0.4000 0.0000  plane waves:     979
 k-point  62 :  -0.4000 0.4000 0.0000  plane waves:     989
 k-point  63 :   0.4667 0.4667 0.0000  plane waves:     982
 k-point  64 :  -0.4667 0.4667 0.0000  plane waves:     984
 k-point  65 :   0.2000 0.1333 0.0667  plane waves:     968
 k-point  66 :   0.2667 0.1333 0.0667  plane waves:     965
 k-point  67 :   0.3333 0.1333 0.0667  plane waves:     971
 k-point  68 :   0.4000 0.1333 0.0667  plane waves:     976
 k-point  69 :   0.4667 0.1333 0.0667  plane waves:     984
 k-point  70 :  -0.4667 0.1333 0.0667  plane waves:     980
 k-point  71 :   0.2667 0.2000 0.0667  plane waves:     974
 k-point  72 :   0.3333 0.2000 0.0667  plane waves:     981
 k-point  73 :   0.4000 0.2000 0.0667  plane waves:     981
 k-point  74 :   0.4667 0.2000 0.0667  plane waves:     986
 k-point  75 :  -0.4667 0.2000 0.0667  plane waves:     983
 k-point  76 :  -0.4000 0.2000 0.0667  plane waves:     981
 k-point  77 :  -0.3333 0.2000 0.0667  plane waves:     983
 k-point  78 :  -0.2667 0.2000 0.0667  plane waves:     986
 k-point  79 :  -0.2000 0.2000 0.0667  plane waves:     977
 k-point  80 :  -0.1333 0.2000 0.0667  plane waves:     974
 k-point  81 :   0.3333 0.2667 0.0667  plane waves:     981
 k-point  82 :   0.4000 0.2667 0.0667  plane waves:     983
 k-point  83 :   0.4667 0.2667 0.0667  plane waves:     986
 k-point  84 :  -0.4667 0.2667 0.0667  plane waves:     981
 k-point  85 :  -0.4000 0.2667 0.0667  plane waves:     976
 k-point  86 :  -0.3333 0.2667 0.0667  plane waves:     983
 k-point  87 :  -0.2667 0.2667 0.0667  plane waves:     986
 k-point  88 :  -0.2000 0.2667 0.0667  plane waves:     986
 k-point  89 :   0.4000 0.3333 0.0667  plane waves:     998
 k-point  90 :   0.4667 0.3333 0.0667  plane waves:     990
 k-point  91 :  -0.4667 0.3333 0.0667  plane waves:     990
 k-point  92 :  -0.4000 0.3333 0.0667  plane waves:     978
 k-point  93 :  -0.3333 0.3333 0.0667  plane waves:     977
 k-point  94 :  -0.2667 0.3333 0.0667  plane waves:     986
 k-point  95 :   0.4667 0.4000 0.0667  plane waves:     988
 k-point  96 :  -0.4667 0.4000 0.0667  plane waves:     985
 k-point  97 :  -0.4000 0.4000 0.0667  plane waves:     986
 k-point  98 :  -0.3333 0.4000 0.0667  plane waves:     988
 k-point  99 :  -0.4667 0.4667 0.0667  plane waves:     981
 k-point 100 :  -0.4000 0.4667 0.0667  plane waves:     979
 k-point 101 :   0.4000 0.2667 0.1333  plane waves:     980
 k-point 102 :   0.4667 0.2667 0.1333  plane waves:     986
 k-point 103 :  -0.4667 0.2667 0.1333  plane waves:     983
 k-point 104 :  -0.4000 0.2667 0.1333  plane waves:     979
 k-point 105 :   0.4667 0.3333 0.1333  plane waves:     986
 k-point 106 :  -0.4667 0.3333 0.1333  plane waves:     986
 k-point 107 :  -0.4000 0.3333 0.1333  plane waves:     985
 k-point 108 :  -0.3333 0.3333 0.1333  plane waves:     982
 k-point 109 :  -0.2667 0.3333 0.1333  plane waves:     986
 k-point 110 :  -0.2000 0.3333 0.1333  plane waves:     983
 k-point 111 :  -0.4667 0.4000 0.1333  plane waves:     987
 k-point 112 :  -0.4000 0.4000 0.1333  plane waves:     984
 k-point 113 :  -0.3333 0.4000 0.1333  plane waves:     986
 k-point 114 :  -0.2667 0.4000 0.1333  plane waves:     989
 k-point 115 :  -0.4000 0.4667 0.1333  plane waves:     982
 k-point 116 :  -0.3333 0.4667 0.1333  plane waves:     987
 k-point 117 :  -0.4000 0.4000 0.2000  plane waves:     978
 k-point 118 :  -0.3333 0.4000 0.2000  plane waves:     984
 k-point 119 :  -0.3333 0.4667 0.2000  plane waves:     981
 k-point 120 :  -0.2667 0.4667 0.2000  plane waves:     978

 maximum and minimum number of plane-waves per node :      1002      941

 maximum number of plane-waves:      1002
 maximum index in each direction: 
   IXMAX=    7   IYMAX=    6   IZMAX=    6
   IXMIN=   -7   IYMIN=   -7   IZMIN=   -7


 serial   3D FFT for wavefunctions
 parallel 3D FFT for charge:
    minimum data exchange during FFTs selected (reduces bandwidth)


 total amount of memory used by VASP MPI-rank0    63883. kBytes
=======================================================================

   base      :      30000. kBytes
   nonl-proj :       7727. kBytes
   fftplans  :      13127. kBytes
   grid      :       5205. kBytes
   one-center:          6. kBytes
   wavefun   :       7818. kBytes

     INWAV:  cpu time      0.0001: real time      0.0001
 Broyden mixing: mesh for mixing (old mesh)
   NGX = 13   NGY = 13   NGZ = 13
  (NGX  = 56   NGY  = 56   NGZ  = 56)
  gives a total of   2197 points

 initial charge density was supplied:
 charge density of overlapping atoms calculated
 number of electron       8.0000000 magnetization 
 keeping initial charge density in first step


--------------------------------------------------------------------------------------------------------


 Maximum index for augmentation-charges        62783 (set IRDMAX)


--------------------------------------------------------------------------------------------------------


 First call to EWALD:  gamma=   0.497
 Maximum number of real-space cells 3x 3x 3
 Maximum number of reciprocal cells 3x 3x 3

    FEWALD:  cpu time      0.0006: real time      0.0006


--------------------------------------- Iteration      1(   1)  ---------------------------------------


    POTLOK:  cpu time      0.0634: real time      0.0638
    SETDIJ:  cpu time      0.0441: real time      0.0441
     EDDAV:  cpu time      1.1751: real time      1.1778
       DOS:  cpu time      0.0011: real time      0.0019
    --------------------------------------------
      LOOP:  cpu time      1.2837: real time      1.2876

 eigenvalue-minimisations  :  1928
 total energy-change (2. order) : 0.3395579E+01  (-0.2913357E+03)
 number of electron       8.0000000 magnetization 
 augmentation part        8.0000000 magnetization 

 Free energy of the ion-electron system (eV)
  ---------------------------------------------------
  alpha Z        PSCENC =         2.97434668
  Ewald energy   TEWEN  =      -219.37095281
  -Hartree energ DENC   =       -12.92670570
  -exchange      EXHF   =         0.00000000
  -V(xc)+E(xc)   XCENC  =       -19.06777392
  PAW double counting   =       176.24759923     -141.06103558
  entropy T*S    EENTRO =        -0.00123239
  eigenvalues    EBANDS =        10.46940569
  atomic energy  EATOM  =       206.13192747
  Solvation  Ediel_sol  =         0.00000000
  ---------------------------------------------------
  free energy    TOTEN  =         3.39557867 eV

  energy without entropy =        3.39681106  energy(sigma->0) =        3.39619487


--------------------------------------------------------------------------------------------------------




--------------------------------------- Iteration      1(   2)  ---------------------------------------


     EDDAV:  cpu time      1.8354: real time      1.8362
       DOS:  cpu time      0.0006: real time      0.0006
    --------------------------------------------
      LOOP:  cpu time      1.8360: real time      1.8369

 eigenvalue-minimisations  :  2992
 total energy-change (2. order) :-0.1407664E+02  (-0.1362324E+02)
 number of electron       8.0000000 magnetization 
 augmentation part        8.0000000 magnetization 

 Free energy of the ion-electron system (eV)
  ---------------------------------------------------
  alpha Z        PSCENC =         2.97434668
  Ewald energy   TEWEN  =      -219.37095281
  -Hartree energ DENC   =       -12.92670570
  -exchange      EXHF   =         0.00000000
  -V(xc)+E(xc)   XCENC  =       -19.06777392
  PAW double counting   =       176.24759923     -141.06103558
  entropy T*S    EENTRO =        -0.00000000
  eigenvalues    EBANDS =        -3.60847147
  atomic energy  EATOM  =       206.13192747
  Solvation  Ediel_sol  =         0.00000000
  ---------------------------------------------------
  free energy    TOTEN  =       -10.68106610 eV

  energy without entropy =      -10.68106609  energy(sigma->0) =      -10.68106610


--------------------------------------------------------------------------------------------------------




--------------------------------------- Iteration      1(   3)  ---------------------------------------


     EDDAV:  cpu time      1.5147: real time      1.5148
       DOS:  cpu time      0.0005: real time      0.0005
    --------------------------------------------
      LOOP:  cpu time      1.5152: real time      1.5153

 eigenvalue-minimisations  :  2520
 total energy-change (2. order) :-0.1770643E+00  (-0.1770643E+00)
 number of electron       8.0000000 magnetization 
 augmentation part        8.0000000 magnetization 

 Free energy of the ion-electron system (eV)
  ---------------------------------------------------
  alpha Z        PSCENC =         2.97434668
  Ewald energy   TEWEN  =      -219.37095281
  -Hartree energ DENC   =       -12.92670570
  -exchange      EXHF   =         0.00000000
  -V(xc)+E(xc)   XCENC  =       -19.06777392
  PAW double counting   =       176.24759923     -141.06103558
  entropy T*S    EENTRO =        -0.00000000
  eigenvalues    EBANDS =        -3.78553574
  atomic energy  EATOM  =       206.13192747
  Solvation  Ediel_sol  =         0.00000000
  ---------------------------------------------------
  free energy    TOTEN  =       -10.85813037 eV

  energy without entropy =      -10.85813037  energy(sigma->0) =      -10.85813037


--------------------------------------------------------------------------------------------------------




--------------------------------------- Iteration      1(   4)  ---------------------------------------


     EDDAV:  cpu time      1.8107: real time      1.8108
       DOS:  cpu time      0.0005: real time      0.0005
    --------------------------------------------
      LOOP:  cpu time      1.8112: real time      1.8113

 eigenvalue-minimisations  :  3024
 total energy-change (2. order) :-0.8213726E-03  (-0.8213725E-03)
 number of electron       8.0000000 magnetization 
 augmentation part        8.0000000 magnetization 

 Free energy of the ion-electron system (eV)
  ---------------------------------------------------
  alpha Z        PSCENC =         2.97434668
  Ewald energy   TEWEN  =      -219.37095281
  -Hartree energ DENC   =       -12.92670570
  -exchange      EXHF   =         0.00000000
  -V(xc)+E(xc)   XCENC  =       -19.06777392
  PAW double counting   =       176.24759923     -141.06103558
  entropy T*S    EENTRO =        -0.00000000
  eigenvalues    EBANDS =        -3.78635711
  atomic energy  EATOM  =       206.13192747
  Solvation  Ediel_sol  =         0.00000000
  ---------------------------------------------------
  free energy    TOTEN  =       -10.85895174 eV

  energy without entropy =      -10.85895174  energy(sigma->0) =      -10.85895174


--------------------------------------------------------------------------------------------------------




--------------------------------------- Iteration      1(   5)  ---------------------------------------


     EDDAV:  cpu time      1.6964: real time      1.6964
       DOS:  cpu time      0.0012: real time      0.0012
    CHARGE:  cpu time      0.1172: real time      0.1172
    MIXING:  cpu time      0.0014: real time      0.0014
    --------------------------------------------
      LOOP:  cpu time      1.8162: real time      1.8162

 eigenvalue-minimisations  :  2608
 total energy-change (2. order) :-0.1541527E-05  (-0.1541395E-05)
 number of electron       8.0000000 magnetization 
 augmentation part       -0.4663799 magnetization 

 Broyden mixing:
  rms(total) = 0.41454E+00    rms(broyden)= 0.41454E+00
  rms(prec ) = 0.82256E+00
  weight for this iteration     100.00

 Free energy of the ion-electron system (eV)
  ---------------------------------------------------
  alpha Z        PSCENC =         2.97434668
  Ewald energy   TEWEN  =      -219.37095281
  -Hartree energ DENC   =       -12.92670570
  -exchange      EXHF   =         0.00000000
  -V(xc)+E(xc)   XCENC  =       -19.06777392
  PAW double counting   =       176.24759923     -141.06103558
  entropy T*S    EENTRO =        -0.00000000
  eigenvalues    EBANDS =        -3.78635865
  atomic energy  EATOM  =       206.13192747
  Solvation  Ediel_sol  =         0.00000000
  ---------------------------------------------------
  free energy    TOTEN  =       -10.85895328 eV

  energy without entropy =      -10.85895328  energy(sigma->0) =      -10.85895328


--------------------------------------------------------------------------------------------------------




--------------------------------------- Iteration      1(   6)  ---------------------------------------


    POTLOK:  cpu time      0.0601: real time      0.0601
    SETDIJ:  cpu time      0.0484: real time      0.0484
     EDDAV:  cpu time      1.4571: real time      1.4572
       DOS:  cpu time      0.0009: real time      0.0009
    CHARGE:  cpu time      0.1400: real time      0.1400
    MIXING:  cpu time      0.0033: real time      0.0052
    --------------------------------------------
      LOOP:  cpu time      1.7098: real time      1.7119

 eigenvalue-minimisations  :  2208
 total energy-change (2. order) : 0.7898679E-01  (-0.4720007E-02)
 number of electron       8.0000000 magnetization 
 augmentation part       -0.4622086 magnetization 

 Broyden mixing:
  rms(total) = 0.25119E+00    rms(broyden)= 0.25119E+00
  rms(prec ) = 0.49586E+00
  weight for this iteration     100.00

 eigenvalues of (default mixing * dielectric matrix)
  average eigenvalue GAMMA=   2.5305
  2.5305

 Free energy of the ion-electron system (eV)
  ---------------------------------------------------
  alpha Z        PSCENC =         2.97434668
  Ewald energy   TEWEN  =      -219.37095281
  -Hartree energ DENC   =       -14.21359023
  -exchange      EXHF   =         0.00000000
  -V(xc)+E(xc)   XCENC  =       -18.86812925
  PAW double counting   =       332.44516772     -297.32563939
  entropy T*S    EENTRO =        -0.00000000
  eigenvalues    EBANDS =        -2.55309669
  atomic energy  EATOM  =       206.13192747
  Solvation  Ediel_sol  =         0.00000000
  ---------------------------------------------------
  free energy    TOTEN  =       -10.77996649 eV

  energy without entropy =      -10.77996649  energy(sigma->0) =      -10.77996649


--------------------------------------------------------------------------------------------------------




--------------------------------------- Iteration      1(   7)  ---------------------------------------


    POTLOK:  cpu time      0.0713: real time      0.0713
    SETDIJ:  cpu time      0.0511: real time      0.0511
     EDDAV:  cpu time      1.4653: real time      1.4660
       DOS:  cpu time      0.0007: real time      0.0007
    CHARGE:  cpu time      0.1299: real time      0.1299
    MIXING:  cpu time      0.0011: real time      0.0011
    --------------------------------------------
      LOOP:  cpu time      1.7194: real time      1.7201

 eigenvalue-minimisations  :  2392
 total energy-change (2. order) : 0.3995240E-01  (-0.9985640E-02)
 number of electron       8.0000000 magnetization 
 augmentation part       -0.4572155 magnetization 

 Broyden mixing:
  rms(total) = 0.13850E-01    rms(broyden)= 0.13850E-01
  rms(prec ) = 0.33164E-01
  weight for this iteration     100.00

 eigenvalues of (default mixing * dielectric matrix)
  average eigenvalue GAMMA=   2.0317
  1.7028  2.3605

 Free energy of the ion-electron system (eV)
  ---------------------------------------------------
  alpha Z        PSCENC =         2.97434668
  Ewald energy   TEWEN  =      -219.37095281
  -Hartree energ DENC   =       -16.40783838
  -exchange      EXHF   =         0.00000000
  -V(xc)+E(xc)   XCENC  =       -18.51994186
  PAW double counting   =       685.68801943     -650.65261169
  entropy T*S    EENTRO =        -0.00000000
  eigenvalues    EBANDS =        -0.58296293
  atomic energy  EATOM  =       206.13192747
  Solvation  Ediel_sol  =         0.00000000
  ---------------------------------------------------
  free energy    TOTEN  =       -10.74001409 eV

  energy without entropy =      -10.74001409  energy(sigma->0) =      -10.74001409


--------------------------------------------------------------------------------------------------------




--------------------------------------- Iteration      1(   8)  ---------------------------------------


    POTLOK:  cpu time      0.0670: real time      0.0670
    SETDIJ:  cpu time      0.0500: real time      0.0500
     EDDAV:  cpu time      1.3211: real time      1.3213
       DOS:  cpu time      0.0012: real time      0.0012
    CHARGE:  cpu time      0.1139: real time      0.1139
    MIXING:  cpu time      0.0016: real time      0.0024
    --------------------------------------------
      LOOP:  cpu time      1.5548: real time      1.5558

 eigenvalue-minimisations  :  2176
 total energy-change (2. order) :-0.1231023E-02  (-0.2955751E-03)
 number of electron       8.0000000 magnetization 
 augmentation part       -0.4579975 magnetization 

 Broyden mixing:
  rms(total) = 0.70211E-02    rms(broyden)= 0.70210E-02
  rms(prec ) = 0.12714E-01
  weight for this iteration     100.00

 eigenvalues of (default mixing * dielectric matrix)
  average eigenvalue GAMMA=   2.2580
  2.9091  1.8623  2.0027

 Free energy of the ion-electron system (eV)
  ---------------------------------------------------
  alpha Z        PSCENC =         2.97434668
  Ewald energy   TEWEN  =      -219.37095281
  -Hartree energ DENC   =       -16.35607429
  -exchange      EXHF   =         0.00000000
  -V(xc)+E(xc)   XCENC  =       -18.52179964
  PAW double counting   =       672.87996048     -637.82256655
  entropy T*S    EENTRO =        -0.00000000
  eigenvalues    EBANDS =        -0.65608647
  atomic energy  EATOM  =       206.13192747
  Solvation  Ediel_sol  =         0.00000000
  ---------------------------------------------------
  free energy    TOTEN  =       -10.74124511 eV

  energy without entropy =      -10.74124511  energy(sigma->0) =      -10.74124511


--------------------------------------------------------------------------------------------------------




--------------------------------------- Iteration      1(   9)  ---------------------------------------


    POTLOK:  cpu time      0.0532: real time      0.0532
    SETDIJ:  cpu time      0.0450: real time      0.0450
     EDDAV:  cpu time      1.8377: real time      1.8392
       DOS:  cpu time      0.0006: real time      0.0006
    CHARGE:  cpu time      0.1495: real time      0.1496
    MIXING:  cpu time      0.0018: real time      0.0018
    --------------------------------------------
      LOOP:  cpu time      2.0879: real time      2.0894

 eigenvalue-minimisations  :  2704
 total energy-change (2. order) :-0.2246860E-03  (-0.2504647E-04)
 number of electron       8.0000000 magnetization 
 augmentation part       -0.4581002 magnetization 

 Broyden mixing:
  rms(total) = 0.46718E-02    rms(broyden)= 0.46718E-02
  rms(prec ) = 0.55936E-02
  weight for this iteration     100.00

 eigenvalues of (default mixing * dielectric matrix)
  average eigenvalue GAMMA=   2.1373
  0.9714  2.8137  2.5448  2.2191

 Free energy of the ion-electron system (eV)
  ---------------------------------------------------
  alpha Z        PSCENC =         2.97434668
  Ewald energy   TEWEN  =      -219.37095281
  -Hartree energ DENC   =       -16.40681207
  -exchange      EXHF   =         0.00000000
  -V(xc)+E(xc)   XCENC  =       -18.51322647
  PAW double counting   =       670.92850848     -635.86821749
  entropy T*S    EENTRO =        -0.00000000
  eigenvalues    EBANDS =        -0.61704361
  atomic energy  EATOM  =       206.13192747
  Solvation  Ediel_sol  =         0.00000000
  ---------------------------------------------------
  free energy    TOTEN  =       -10.74146980 eV

  energy without entropy =      -10.74146980  energy(sigma->0) =      -10.74146980


--------------------------------------------------------------------------------------------------------




--------------------------------------- Iteration      1(  10)  ---------------------------------------


    POTLOK:  cpu time      0.0664: real time      0.0664
    SETDIJ:  cpu time      0.0444: real time      0.0444
     EDDAV:  cpu time      1.5072: real time      1.5073
       DOS:  cpu time      0.0006: real time      0.0006
    CHARGE:  cpu time      0.1162: real time      0.1162
    MIXING:  cpu time      0.0009: real time      0.0009
    --------------------------------------------
      LOOP:  cpu time      1.7357: real time      1.7358

 eigenvalue-minimisations  :  2296
 total energy-change (2. order) :-0.1968394E-04  (-0.2310574E-05)
 number of electron       8.0000000 magnetization 
 augmentation part       -0.4580463 magnetization 

 Broyden mixing:
  rms(total) = 0.53132E-03    rms(broyden)= 0.53132E-03
  rms(prec ) = 0.71101E-03
  weight for this iteration     100.00

 eigenvalues of (default mixing * dielectric matrix)
  average eigenvalue GAMMA=   1.9088
  2.9854  2.4506  2.0919  1.0082  1.0082

 Free energy of the ion-electron system (eV)
  ---------------------------------------------------
  alpha Z        PSCENC =         2.97434668
  Ewald energy   TEWEN  =      -219.37095281
  -Hartree energ DENC   =       -16.41582700
  -exchange      EXHF   =         0.00000000
  -V(xc)+E(xc)   XCENC  =       -18.51312875
  PAW double counting   =       663.00132356     -627.94181163
  entropy T*S    EENTRO =        -0.00000000
  eigenvalues    EBANDS =        -0.60736700
  atomic energy  EATOM  =       206.13192747
  Solvation  Ediel_sol  =         0.00000000
  ---------------------------------------------------
  free energy    TOTEN  =       -10.74148948 eV

  energy without entropy =      -10.74148948  energy(sigma->0) =      -10.74148948


--------------------------------------------------------------------------------------------------------




--------------------------------------- Iteration      1(  11)  ---------------------------------------


    POTLOK:  cpu time      0.0594: real time      0.0594
    SETDIJ:  cpu time      0.0453: real time      0.0453
     EDDAV:  cpu time      1.7908: real time      1.7909
       DOS:  cpu time      0.0006: real time      0.0006
    --------------------------------------------
      LOOP:  cpu time      1.8961: real time      1.8961

 eigenvalue-minimisations  :  2688
 total energy-change (2. order) :-0.6274172E-07  (-0.5196012E-07)
 number of electron       8.0000000 magnetization 
 augmentation part       -0.4580463 magnetization 

 Free energy of the ion-electron system (eV)
  ---------------------------------------------------
  alpha Z        PSCENC =         2.97434668
  Ewald energy   TEWEN  =      -219.37095281
  -Hartree energ DENC   =       -16.41467823
  -exchange      EXHF   =         0.00000000
  -V(xc)+E(xc)   XCENC  =       -18.51325963
  PAW double counting   =       663.51144793     -628.45157454
  entropy T*S    EENTRO =        -0.00000000
  eigenvalues    EBANDS =        -0.60874642
  atomic energy  EATOM  =       206.13192747
  Solvation  Ediel_sol  =         0.00000000
  ---------------------------------------------------
  free energy    TOTEN  =       -10.74148955 eV

  energy without entropy =      -10.74148955  energy(sigma->0) =      -10.74148955


--------------------------------------------------------------------------------------------------------




 average (electrostatic) potential at core
  the test charge radii are     0.9892
  (the norm of the test charge is              1.0000)
       1 -84.5732       2 -84.5732



 E-fermi :   4.9093     XC(G=0):  -8.9357     alpha+bet :-10.5959

 Fermi energy:         4.9092630819

 k-point     1 :       0.0000    0.0000    0.0000
  band No.  band energies     occupation 
      1      -6.5066      2.00000
      2       4.6510      2.00000
      3       4.6510      2.00000
      4       4.6510      2.00000
      5       6.6698      0.00000
      6       7.1576      0.00000
      7       7.1576      0.00000
      8       7.1576      0.00000

 k-point     2 :       0.0667    0.0000    0.0000
  band No.  band energies     occupation 
      1      -6.4543      2.00000
      2       4.0288      2.00000
      3       4.5679      2.00000
      4       4.5679      2.00000
      5       6.8432      0.00000
      6       7.2801      0.00000
      7       7.2801      0.00000
      8       7.5201      0.00000

 k-point     3 :       0.1333    0.0000    0.0000
  band No.  band energies     occupation 
      1      -6.2984      2.00000
      2       2.9155      2.00000
      3       4.3683      2.00000
      4       4.3683      2.00000
      5       6.6834      0.00000
      6       7.5746      0.00000
      7       7.5746      0.00000
      8       8.5804      0.00000

 k-point     4 :       0.2000    0.0000    0.0000
  band No.  band energies     occupation 
      1      -6.0430      2.00000
      2       1.7556      2.00000
      3       4.1346      2.00000
      4       4.1346      2.00000
      5       6.4320      0.00000
      6       7.8875      0.00000
      7       7.8875      0.00000
      8       9.7452      0.00000

 k-point     5 :       0.2667    0.0000    0.0000
  band No.  band energies     occupation 
      1      -5.6973      2.00000
      2       0.6491      2.00000
      3       3.9191      2.00000
      4       3.9191      2.00000
      5       6.1868      0.00000
      6       8.0785      0.00000
      7       8.0785      0.00000
      8      10.8914      0.00000

 k-point     6 :       0.3333    0.0000    0.0000
  band No.  band energies     occupation 
      1      -5.2816      2.00000
      2      -0.3527      2.00000
      3       3.7468      2.00000
      4       3.7468      2.00000
      5       5.9854      0.00000
      6       8.1141      0.00000
      7       8.1141      0.00000
      8      11.8828      0.00000

 k-point     7 :       0.4000    0.0000    0.0000
  band No.  band energies     occupation 
      1      -4.8459      2.00000
      2      -1.1853      2.00000
      3       3.6286      2.00000
      4       3.6286      2.00000
      5       5.8450      0.00000
      6       8.0702      0.00000
      7       8.0702      0.00000
      8      12.2301      0.00000

 k-point     8 :       0.4667    0.0000    0.0000
  band No.  band energies     occupation 
      1      -4.5198      2.00000
      2      -1.7114      2.00000
      3       3.5688      2.00000
      4       3.5688      2.00000
      5       5.7734      0.00000
      6       8.0281      0.00000
      7       8.0281      0.00000
      8      12.2066      0.00000

 k-point     9 :       0.0667    0.0667    0.0000
  band No.  band energies     occupation 
      1      -6.4368      2.00000
      2       4.0778      2.00000
      3       4.4001      2.00000
      4       4.4001      2.00000
      5       6.9955      0.00000
      6       7.2241      0.00000
      7       7.4949      0.00000
      8       7.4949      0.00000

 k-point    10 :       0.1333    0.0667    0.0000
  band No.  band energies     occupation 
      1      -6.3152      2.00000
      2       3.2041      2.00000
      3       4.1551      2.00000
      4       4.2754      2.00000
      5       6.9652      0.00000
      6       7.2711      0.00000
      7       7.8522      0.00000
      8       8.3409      0.00000

 k-point    11 :       0.2000    0.0667    0.0000
  band No.  band energies     occupation 
      1      -6.0924      2.00000
      2       2.0986      2.00000
      3       3.9072      2.00000
      4       4.0715      2.00000
      5       6.8564      0.00000
      6       7.4378      0.00000
      7       8.2123      0.00000
      8       9.3297      0.00000

 k-point    12 :       0.2667    0.0667    0.0000
  band No.  band energies     occupation 
      1      -5.7756      2.00000
      2       0.9959      2.00000
      3       3.6981      2.00000
      4       3.8191      2.00000
      5       6.6361      0.00000
      6       7.7198      0.00000
      7       8.4385      0.00000
      8      10.0821      0.00000

 k-point    13 :       0.3333    0.0667    0.0000
  band No.  band energies     occupation 
      1      -5.3799      2.00000
      2      -0.0310      2.00000
      3       3.5473      2.00000
      4       3.5774      2.00000
      5       6.4297      0.00000
      6       7.8778      0.00000
      7       8.4750      0.00000
      8      10.7237      0.00000

 k-point    14 :       0.4000    0.0667    0.0000
  band No.  band energies     occupation 
      1      -4.9417      2.00000
      2      -0.9216      2.00000
      3       3.3756      2.00000
      4       3.4627      2.00000
      5       6.2717      0.00000
      6       7.9163      0.00000
      7       8.3881      0.00000
      8      11.4856      0.00000

 k-point    15 :       0.4667    0.0667    0.0000
  band No.  band energies     occupation 
      1      -4.5563      2.00000
      2      -1.5689      2.00000
      3       3.2276      2.00000
      4       3.4461      2.00000
      5       6.1759      0.00000
      6       7.9311      0.00000
      7       8.2723      0.00000
      8      12.1417      0.00000

 k-point    16 :      -0.4667    0.0667    0.0000
  band No.  band energies     occupation 
      1      -4.4282      2.00000
      2      -1.7625      2.00000
      3       3.1415      2.00000
      4       3.4954      2.00000
      5       6.1482      0.00000
      6       7.9824      0.00000
      7       8.1838      0.00000
      8      12.3266      0.00000

 k-point    17 :      -0.4000    0.0667    0.0000
  band No.  band energies     occupation 
      1      -4.6691      2.00000
      2      -1.3898      2.00000
      3       3.1226      2.00000
      4       3.6064      2.00000
      5       6.1899      0.00000
      6       8.0828      0.00000
      7       8.1373      0.00000
      8      12.2301      0.00000

 k-point    18 :      -0.3333    0.0667    0.0000
  band No.  band energies     occupation 
      1      -5.0892      2.00000
      2      -0.6431      2.00000
      3       3.1748      2.00000
      4       3.7720      2.00000
      5       6.2995      0.00000
      6       8.1082      0.00000
      7       8.2030      0.00000
      8      11.6747      0.00000

 k-point    19 :      -0.2667    0.0667    0.0000
  band No.  band energies     occupation 
      1      -5.5196      2.00000
      2       0.3004      2.00000
      3       3.3003      2.00000
      4       3.9814      2.00000
      5       6.4707      0.00000
      6       8.0291      0.00000
      7       8.2610      0.00000
      8      10.8499      0.00000

 k-point    20 :      -0.2000    0.0667    0.0000
  band No.  band energies     occupation 
      1      -5.8914      2.00000
      2       1.3549      2.00000
      3       3.4994      2.00000
      4       4.2154      2.00000
      5       6.6888      0.00000
      6       7.8280      0.00000
      7       8.1293      0.00000
      8      10.0111      0.00000

 k-point    21 :      -0.1333    0.0667    0.0000
  band No.  band energies     occupation 
      1      -6.1779      2.00000
      2       2.4521      2.00000
      3       3.7733      2.00000
      4       4.4370      2.00000
      5       6.9189      0.00000
      6       7.5361      0.00000
      7       7.7652      0.00000
      8       9.1189      0.00000

 k-point    22 :      -0.0667    0.0667    0.0000
  band No.  band energies     occupation 
      1      -6.3673      2.00000
      2       3.4496      2.00000
      3       4.1466      2.00000
      4       4.5796      2.00000
      5       7.0232      0.00000
      6       7.3037      0.00000
      7       7.3819      0.00000
      8       8.1906      0.00000

 k-point    23 :       0.1333    0.1333    0.0000
  band No.  band energies     occupation 
      1      -6.2279      2.00000
      2       3.0404      2.00000
      3       3.8830      2.00000
      4       3.8830      2.00000
      5       6.6124      0.00000
      6       8.0659      0.00000
      7       8.2691      0.00000
      8       8.2691      0.00000

 k-point    24 :       0.2000    0.1333    0.0000
  band No.  band energies     occupation 
      1      -6.0385      2.00000
      2       2.2448      2.00000
      3       3.6207      2.00000
      4       3.6545      2.00000
      5       6.5778      0.00000
      6       7.9728      0.00000
      7       8.6994      0.00000
      8       8.9725      0.00000

 k-point    25 :       0.2667    0.1333    0.0000
  band No.  band energies     occupation 
      1      -5.7523      2.00000
      2       1.2562      2.00000
      3       3.3749      2.00000
      4       3.4062      2.00000
      5       6.7295      0.00000
      6       7.9198      0.00000
      7       9.0048      0.00000
      8       9.2424      0.00000

 k-point    26 :       0.3333    0.1333    0.0000
  band No.  band energies     occupation 
      1      -5.3807      2.00000
      2       0.2661      2.00000
      3       3.0667      2.00000
      4       3.2580      2.00000
      5       6.7701      0.00000
      6       8.0302      0.00000
      7       9.0947      0.00000
      8       9.4588      0.00000

 k-point    27 :       0.4000    0.1333    0.0000
  band No.  band energies     occupation 
      1      -4.9501      2.00000
      2      -0.6393      2.00000
      3       2.7844      2.00000
      4       3.1842      2.00000
      5       6.7035      0.00000
      6       8.0926      0.00000
      7       9.0098      0.00000
      8      10.0508      0.00000

 k-point    28 :       0.4667    0.1333    0.0000
  band No.  band energies     occupation 
      1      -4.5287      2.00000
      2      -1.3652      2.00000
      3       2.5559      2.00000
      4       3.1868      2.00000
      5       6.6426      0.00000
      6       8.0895      0.00000
      7       8.8542      0.00000
      8      10.9537      0.00000

 k-point    29 :      -0.4667    0.1333    0.0000
  band No.  band energies     occupation 
      1      -4.2876      2.00000
      2      -1.7282      2.00000
      3       2.3961      2.00000
      4       3.2635      2.00000
      5       6.6346      0.00000
      6       8.1102      0.00000
      7       8.7013      0.00000
      8      11.9623      0.00000

[...]

 k-point    86 :      -0.3333    0.2667    0.0667
  band No.  band energies     occupation 
      1      -3.4516      2.00000
      2      -0.8580      2.00000
      3       1.8497      2.00000
      4       3.6749      2.00000
      5       7.9444      0.00000
      6       9.9023      0.00000
      7      11.5748      0.00000
      8      12.3227      0.00000

 k-point    87 :      -0.2667    0.2667    0.0667
  band No.  band energies     occupation 
      1      -3.9062      2.00000
      2      -0.2259      2.00000
      3       1.8985      2.00000
      4       3.9401      2.00000
      5       8.2364      0.00000
      6       9.7514      0.00000
      7      11.1894      0.00000
      8      11.5353      0.00000

 k-point    88 :      -0.2000    0.2667    0.0667
  band No.  band energies     occupation 
      1      -4.3927      2.00000
      2       0.4685      2.00000
      3       2.1990      2.00000
      4       4.2501      2.00000
      5       8.5564      0.00000
      6       9.3894      0.00000
      7      10.6491      0.00000
      8      11.1070      0.00000

 k-point    89 :       0.4000    0.3333    0.0667
  band No.  band energies     occupation 
      1      -4.2670      2.00000
      2       0.5153      2.00000
      3       2.9687      2.00000
      4       3.2514      2.00000
      5       6.8095      0.00000
      6       7.9472      0.00000
      7      11.9479      0.00000
      8      12.7576      0.00000

 k-point    90 :       0.4667    0.3333    0.0667
  band No.  band energies     occupation 
      1      -3.8079      2.00000
      2      -0.1418      2.00000
      3       2.4954      2.00000
      4       3.0892      2.00000
      5       7.0881      0.00000
      6       8.1845      0.00000
      7      11.7580      0.00000
      8      13.0952      0.00000

 k-point    91 :      -0.4667    0.3333    0.0667
  band No.  band energies     occupation 
      1      -3.3128      2.00000
      2      -0.7694      2.00000
      3       2.0022      2.00000
      4       3.0611      2.00000
      5       7.2155      0.00000
      6       9.0270      0.00000
      7      11.5165      0.00000
      8      13.0854      0.00000

 k-point    92 :      -0.4000    0.3333    0.0667
  band No.  band energies     occupation 
      1      -2.9341      2.00000
      2      -1.2018      2.00000
      3       1.6188      2.00000
      4       3.1503      2.00000
      5       7.3520      0.00000
      6      10.1655      0.00000
      7      11.3058      0.00000
      8      12.9447      0.00000

 k-point    93 :      -0.3333    0.3333    0.0667
  band No.  band energies     occupation 
      1      -2.9988      2.00000
      2      -1.1208      2.00000
      3       1.4180      2.00000
      4       3.3408      2.00000
      5       7.5736      0.00000
      6      10.9405      0.00000
      7      11.6245      0.00000
      8      12.3472      0.00000

 k-point    94 :      -0.2667    0.3333    0.0667
  band No.  band energies     occupation 
      1      -3.4224      2.00000
      2      -0.6657      2.00000
      3       1.4797      2.00000
      4       3.6142      2.00000
      5       7.8808      0.00000
      6      10.5988      0.00000
      7      11.4510      0.00000
      8      12.3300      0.00000

 k-point    95 :       0.4667    0.4000    0.0667
  band No.  band energies     occupation 
      1      -3.4839      2.00000
      2      -0.5573      2.00000
      3       2.7177      2.00000
      4       2.8762      2.00000
      5       6.6604      0.00000
      6       7.3143      0.00000
      7      13.0644      0.00000
      8      14.0113      0.00000

 k-point    96 :      -0.4667    0.4000    0.0667
  band No.  band energies     occupation 
      1      -2.9901      2.00000
      2      -1.1104      2.00000
      3       2.2273      2.00000
      4       2.8043      2.00000
      5       6.9214      0.00000
      6       7.7836      0.00000
      7      12.8499      0.00000
      8      14.3118      0.00000

 k-point    97 :      -0.4000    0.4000    0.0667
  band No.  band energies     occupation 
      1      -2.5497      2.00000
      2      -1.5431      2.00000
      3       1.7158      2.00000
      4       2.8848      2.00000
      5       7.0573      0.00000
      6       8.8221      0.00000
      7      12.5982      0.00000
      8      13.7787      0.00000

 k-point    98 :      -0.3333    0.4000    0.0667
  band No.  band energies     occupation 
      1      -2.5816      2.00000
      2      -1.4861      2.00000
      3       1.3980      2.00000
      4       3.0689      2.00000
      5       7.2684      0.00000
      6      10.0857      0.00000
      7      12.1945      0.00000
      8      12.6676      0.00000

 k-point    99 :      -0.4667    0.4667    0.0667
  band No.  band energies     occupation 
      1      -2.5892      2.00000
      2      -1.6042      2.00000
      3       2.6142      2.00000
      4       2.6652      2.00000
      5       6.6828      0.00000
      6       6.8956      0.00000
      7      14.2285      0.00000
      8      15.0788      0.00000

 k-point   100 :      -0.4000    0.4667    0.0667
  band No.  band energies     occupation 
      1      -2.1722      2.00000
      2      -1.9820      2.00000
      3       2.1349      2.00000
      4       2.7122      2.00000
      5       6.8676      0.00000
      6       7.6468      0.00000
      7      13.9183      0.00000
      8      14.1013      0.00000

 k-point   101 :       0.4000    0.2667    0.1333
  band No.  band energies     occupation 
      1      -4.7215      2.00000
      2       1.0624      2.00000
      3       2.7737      2.00000
      4       4.0551      2.00000
      5       8.1159      0.00000
      6       9.4572      0.00000
      7       9.7480      0.00000
      8      11.3493      0.00000

 k-point   102 :       0.4667    0.2667    0.1333
  band No.  band energies     occupation 
      1      -4.2646      2.00000
      2       0.2988      2.00000
      3       2.3794      2.00000
      4       3.7798      2.00000
      5       8.4359      0.00000
      6       9.4059      0.00000
      7       9.8889      0.00000
      8      11.7080      0.00000

 k-point   103 :      -0.4667    0.2667    0.1333
  band No.  band energies     occupation 
      1      -3.7722      2.00000
      2      -0.4647      2.00000
      3       2.1810      2.00000
      4       3.5436      2.00000
      5       8.5640      0.00000
      6       9.1125      0.00000
      7      10.7839      0.00000
      8      11.7904      0.00000

 k-point   104 :      -0.4000    0.2667    0.1333
  band No.  band energies     occupation 
      1      -3.3822      2.00000
      2      -1.0069      2.00000
      3       2.1008      2.00000
      4       3.4100      2.00000
      5       8.6783      0.00000
      6       8.8660      0.00000
      7      11.7622      0.00000
      8      11.9707      0.00000

 k-point   105 :       0.4667    0.3333    0.1333
  band No.  band energies     occupation 
      1      -4.0854      2.00000
      2       0.2106      2.00000
      3       2.4083      2.00000
      4       3.3081      2.00000
      5       7.8327      0.00000
      6       8.7834      0.00000
      7      10.5106      0.00000
      8      12.6653      0.00000

 k-point   106 :      -0.4667    0.3333    0.1333
  band No.  band energies     occupation 
      1      -3.5967      2.00000
      2      -0.4281      2.00000
      3       2.0391      2.00000
      4       3.0578      2.00000
      5       8.1544      0.00000
      6       9.3257      0.00000
      7      10.2361      0.00000
      8      13.0331      0.00000

 k-point   107 :      -0.4000    0.3333    0.1333
  band No.  band energies     occupation 
      1      -3.1424      2.00000
      2      -0.9863      2.00000
      3       1.7855      2.00000
      4       2.9424      2.00000
      5       8.2976      0.00000
      6       9.8614      0.00000
      7      10.4936      0.00000
      8      13.0777      0.00000

 k-point   108 :      -0.3333    0.3333    0.1333
  band No.  band energies     occupation 
      1      -2.9936      2.00000
      2      -1.1574      2.00000
      3       1.6435      2.00000
      4       2.9870      2.00000
      5       8.4815      0.00000
      6       9.6812      0.00000
      7      11.6552      0.00000
      8      12.0974      0.00000

 k-point   109 :      -0.2667    0.3333    0.1333
  band No.  band energies     occupation 
      1      -3.3115      2.00000
      2      -0.7819      2.00000
      3       1.6480      2.00000
      4       3.1716      2.00000
      5       8.7431      0.00000
      6       9.5007      0.00000
      7      10.7818      0.00000
      8      12.9129      0.00000

 k-point   110 :      -0.2000    0.3333    0.1333
  band No.  band energies     occupation 
      1      -3.7960      2.00000
      2      -0.2114      2.00000
      3       1.8700      2.00000
      4       3.4570      2.00000
      5       9.0688      0.00000
      6       9.1409      0.00000
      7      10.0045      0.00000
      8      12.5245      0.00000

 k-point   111 :      -0.4667    0.4000    0.1333
  band No.  band energies     occupation 
      1      -3.3350      2.00000
      2      -0.6792      2.00000
      3       2.2014      2.00000
      4       2.7172      2.00000
      5       7.6799      0.00000
      6       8.2204      0.00000
      7      11.4859      0.00000
      8      13.9902      0.00000

 k-point   112 :      -0.4000    0.4000    0.1333
  band No.  band energies     occupation 
      1      -2.8471      2.00000
      2      -1.1898      2.00000
      3       1.8385      2.00000
      4       2.5596      2.00000
      5       7.9727      0.00000
      6       8.9991      0.00000
      7      11.2085      0.00000
      8      13.5299      0.00000

 k-point   113 :      -0.3333    0.4000    0.1333
  band No.  band energies     occupation 
      1      -2.5764      2.00000
      2      -1.4530      2.00000
      3       1.5302      2.00000
      4       2.6301      2.00000
      5       8.1524      0.00000
      6      10.1507      0.00000
      7      11.0110      0.00000
      8      12.1456      0.00000

 k-point   114 :      -0.2667    0.4000    0.1333
  band No.  band energies     occupation 
      1      -2.8425      2.00000
      2      -1.1855      2.00000
      3       1.4342      2.00000
      4       2.8487      2.00000
      5       8.4099      0.00000
      6      10.4475      0.00000
      7      11.0279      0.00000
      8      11.7363      0.00000

 k-point   115 :      -0.4000    0.4667    0.1333
  band No.  band energies     occupation 
      1      -2.4933      2.00000
      2      -1.5937      2.00000
      3       2.1715      2.00000
      4       2.3377      2.00000
      5       7.6819      0.00000
      6       7.8568      0.00000
      7      12.5738      0.00000
      8      13.7531      0.00000

 k-point   116 :      -0.3333    0.4667    0.1333
  band No.  band energies     occupation 
      1      -2.1961      2.00000
      2      -1.8420      2.00000
      3       1.7743      2.00000
      4       2.3826      2.00000
      5       7.9105      0.00000
      6       8.8903      0.00000
      7      12.2429      0.00000
      8      12.3954      0.00000

 k-point   117 :      -0.4000    0.4000    0.2000
  band No.  band energies     occupation 
      1      -3.1092      2.00000
      2      -0.8982      2.00000
      3       1.7272      2.00000
      4       2.6943      2.00000
      5       8.9989      0.00000
      6       9.3960      0.00000
      7       9.9881      0.00000
      8      13.3198      0.00000

 k-point   118 :      -0.3333    0.4000    0.2000
  band No.  band energies     occupation 
      1      -2.6879      2.00000
      2      -1.3196      2.00000
      3       1.5896      2.00000
      4       2.4782      2.00000
      5       9.2678      0.00000
      6       9.5911      0.00000
      7      10.5281      0.00000
      8      11.8907      0.00000

 k-point   119 :      -0.3333    0.4667    0.2000
  band No.  band energies     occupation 
      1      -2.3681      2.00000
      2      -1.6186      2.00000
      3       1.8017      2.00000
      4       2.1225      2.00000
      5       8.9907      0.00000
      6       9.1309      0.00000
      7      10.9294      0.00000
      8      12.0637      0.00000

 k-point   120 :      -0.2667    0.4667    0.2000
  band No.  band energies     occupation 
      1      -2.2584      2.00000
      2      -1.7062      2.00000
      3       1.6511      2.00000
      4       2.1413      2.00000
      5       9.2409      0.00000
      6      10.1286      0.00000
      7      10.7748      0.00000
      8      10.8256      0.00000


--------------------------------------------------------------------------------------------------------


 soft charge-density along one line, spin component           1
         0         1         2         3         4         5         6         7         8         9
 total charge-density along one line

 pseudopotential strength for first ion, spin component:           1
 18.437  25.723   0.000   0.000   0.000   0.000   0.000   0.000
 25.723  35.893   0.000   0.000   0.000   0.000   0.000   0.000
  0.000   0.000   4.181   0.000   0.000   7.790   0.000   0.000
  0.000   0.000   0.000   4.181   0.000   0.000   7.790   0.000
  0.000   0.000   0.000   0.000   4.181   0.000   0.000   7.790
  0.000   0.000   7.790   0.000   0.000  14.528   0.000   0.000
  0.000   0.000   0.000   7.790   0.000   0.000  14.528   0.000
  0.000   0.000   0.000   0.000   7.790   0.000   0.000  14.528
 total augmentation occupancy for first ion, spin component:           1
  5.532  -2.066  -0.000  -0.000  -0.000  -0.000  -0.000  -0.000
 -2.066   0.888  -0.000  -0.000  -0.000   0.000   0.000   0.000
 -0.000  -0.000   2.902  -0.000   0.000  -0.648   0.000  -0.000
 -0.000  -0.000  -0.000   2.902   0.000   0.000  -0.648   0.000
 -0.000  -0.000   0.000   0.000   2.902  -0.000  -0.000  -0.648
 -0.000   0.000  -0.648   0.000  -0.000   0.153  -0.000   0.000
 -0.000   0.000   0.000  -0.648  -0.000  -0.000   0.153   0.000
 -0.000  -0.000  -0.000   0.000  -0.648   0.000   0.000   0.153


------------------------ aborting loop because EDIFF is reached ----------------------------------------


    CHARGE:  cpu time      0.1048: real time      0.1048
    FORLOC:  cpu time      0.0016: real time      0.0016
    FORNL :  cpu time      0.2851: real time      0.2858
    STRESS:  cpu time      1.1524: real time      1.1526
    FORCOR:  cpu time      0.0426: real time      0.0426
    FORHAR:  cpu time      0.0158: real time      0.0158
    MIXING:  cpu time      0.0012: real time      0.0012
    OFIELD:  cpu time      0.0000: real time      0.0000

  FORCE on cell =-STRESS in cart. coord.  units (eV):
  Direction    XX          YY          ZZ          XY          YZ          ZX
  --------------------------------------------------------------------------------------
  Alpha Z     3.29337     3.29337     3.29337
  Ewald     -75.64982   -75.64982   -75.64982     0.00000    -0.00000    -0.00000
  Hartree     5.05671     5.05671     5.05671     0.00000     0.00000     0.00000
  E(xc)     -25.24578   -25.24578   -25.24578     0.00000     0.00000     0.00000
  Local     -29.51107   -29.51107   -29.51107     0.00001     0.00001     0.00001
  n-local    78.36405    79.89041    74.11711     2.20129    -1.30503     0.50385
  augment   -11.64965   -11.64965   -11.64965    -0.00001    -0.00001    -0.00001
  Kinetic    58.48107    55.76000    54.50681     3.58643    -0.67054     1.05150
  Fock        0.00000     0.00000     0.00000     0.00000     0.00000     0.00000
  -------------------------------------------------------------------------------------
  Total       0.00025     0.00025     0.00025    -0.00000    -0.00000     0.00000
  in kB       0.00998     0.00998     0.00998    -0.00000    -0.00000     0.00000
  external pressure =        0.01 kB  Pullay stress =        0.00 kB


 VOLUME and BASIS-vectors are now :
 -----------------------------------------------------------------------------
  energy-cutoff  :      450.00
  volume of cell :       40.89
      direct lattice vectors                 reciprocal lattice vectors
     0.000000000  2.734310366  2.734310366    -0.182861465  0.182861465  0.182861465
     2.734310366  0.000000000  2.734310366     0.182861465 -0.182861465  0.182861465
     2.734310366  2.734310366  0.000000000     0.182861465  0.182861465 -0.182861465

  length of vectors
     3.866898804  3.866898804  3.866898804     0.316725349  0.316725349  0.316725349


 FORCES acting on ions
    electron-ion (+dipol)            ewald-force                    non-local-force                 convergence-correction
 -----------------------------------------------------------------------------------------------
   0.477E-07 0.477E-07 0.485E-07   -.372E-14 -.173E-14 -.494E-14   -.108E-15 0.133E-16 -.375E-16   -.359E-08 -.359E-08 -.359E-08
   -.477E-07 -.477E-07 -.485E-07   0.400E-14 0.138E-14 0.543E-14   0.190E-15 -.115E-16 0.719E-16   0.359E-08 0.359E-08 0.359E-08
 -----------------------------------------------------------------------------------------------
   -.114E-12 -.239E-12 -.101E-12   0.278E-15 -.343E-15 0.483E-15   0.815E-16 0.172E-17 0.344E-16   0.776E-15 -.805E-15 -.463E-15


 POSITION                                       TOTAL-FORCE (eV/Angst)
 -----------------------------------------------------------------------------------
      4.78504      4.78504      4.78504         0.000000      0.000000      0.000000
      0.68358      0.68358      0.68358        -0.000000     -0.000000     -0.000000
 -----------------------------------------------------------------------------------
    total drift:                               -0.000000     -0.000000     -0.000000


--------------------------------------------------------------------------------------------------------



  FREE ENERGIE OF THE ION-ELECTRON SYSTEM (eV)
  ---------------------------------------------------
  free  energy   TOTEN  =       -10.85028914 eV

  energy  without entropy=      -10.85028914  energy(sigma->0) =      -10.85028914

 d Force = 0.0000000E+00[ 0.000E+00, 0.000E+00]  d Energy = 0.2911899E-01-0.291E-01
 d Force = 0.0000000E+00[ 0.000E+00, 0.000E+00]  d Ewald  =-0.3796645E+01 0.380E+01


--------------------------------------------------------------------------------------------------------


    POTLOK:  cpu time      0.0965: real time      0.0965


--------------------------------------------------------------------------------------------------------




--------------------------------------------------------------------------------------------------------


  
 reached required accuracy - stopping structural energy minimisation
     LOOP+:  cpu time     11.1233: real time     11.1262
    4ORBIT:  cpu time      0.0000: real time      0.0000

 total amount of memory used by VASP MPI-rank0    63883. kBytes
=======================================================================

   base      :      30000. kBytes
   nonl-proj :       7727. kBytes
   fftplans  :      13127. kBytes
   grid      :       5205. kBytes
   one-center:          6. kBytes
   wavefun   :       7818. kBytes

  
  
 General timing and accounting informations for this job:
 ========================================================
  
                  Total CPU time used (sec):       44.808
                            User time (sec):       41.586
                          System time (sec):        3.222
                         Elapsed time (sec):       45.142
  
                   Maximum memory used (kb):      107692.
                   Average memory used (kb):          N/A
  
                          Minor page faults:       468038
                          Major page faults:          285
                 Voluntary context switches:         1331
