    2    2    1    1
  0.2370191E+02  0.4062338E-09  0.4062338E-09  0.4062338E-09  0.5000000E-15
   1.0000000000000000E-004
  CAR 
 unknown system                          
     28    120     18

  0.0000000E+00  0.0000000E+00  0.0000000E+00  0.8333333E-02
      1        -20.712861   1.000000
      2        -20.672196   1.000000
      3        -20.672196   1.000000
      4        -20.611684   1.000000
      5        -20.611684   1.000000
      6        -20.229439   1.000000
      7        -20.188653   1.000000
      8        -20.188653   1.000000
      9        -20.143248   1.000000
     10        -20.143248   1.000000
     11         -8.256841   1.000000
     12          3.611189   1.000000
     13          3.961793   1.000000
     14          4.212059   0.599255
     15          4.212059   0.599255
     16          6.844694   0.000000
     17          6.844695   0.000000
     18          6.867916   0.000000

  0.2631579E-01  0.0000000E+00  0.2631579E-01  0.8333333E-02
      1        -20.713091   1.000000
      2        -20.672350   1.000000
      3        -20.672329   1.000000
      4        -20.611770   1.000000
      5        -20.611676   1.000000
      6        -20.229556   1.000000
      7        -20.188963   1.000000
      8        -20.188740   1.000000
      9        -20.143383   1.000000
     10        -20.143309   1.000000
     11         -8.246180   1.000000
     12          3.322921   1.000000
     13          3.956557   1.000000
     14          4.162020   0.952215
     15          4.456829   0.000000
     16          6.817033   0.000000
     17          6.908469   0.000000
     18          6.921502   0.000000

  0.5263158E-01  0.0000000E+00  0.5263158E-01  0.8333333E-02
      1        -20.713263   1.000000
      2        -20.672374   1.000000
      3        -20.672349   1.000000
      4        -20.611597   1.000000
      5        -20.611344   1.000000
      6        -20.229454   1.000000
      7        -20.189504   1.000000
      8        -20.188567   1.000000
      9        -20.143391   1.000000
     10        -20.143200   1.000000
     11         -8.214144   1.000000
     12          2.870153   1.000000
     13          3.840740   1.000000
     14          4.025116   1.000000
     15          4.888312   0.000000
     16          6.724321   0.000000
     17          7.086532   0.000000
     18          7.087429   0.000000

  0.7894737E-01  0.0000000E+00  0.7894737E-01  0.8333333E-02
      1        -20.713550   1.000000
      2        -20.672435   1.000000
      3        -20.672357   1.000000
      4        -20.611312   1.000000
      5        -20.610783   1.000000
      6        -20.229322   1.000000
      7        -20.190324   1.000000
      8        -20.188290   1.000000
      9        -20.143378   1.000000
     10        -20.143054   1.000000
     11         -8.160802   1.000000
     12          2.397109   1.000000
     13          3.661354   1.000000
     14          3.829545   1.000000
     15          5.333968   0.000000
     16          6.585672   0.000000
     17          7.337734   0.000000
     18          7.350445   0.000000

  0.1052632E+00  0.0000000E+00  0.1052632E+00  0.8333333E-02
      1        -20.713846   1.000000
      2        -20.672433   1.000000
      3        -20.672318   1.000000
      4        -20.610843   1.000000
      5        -20.609986   1.000000
      6        -20.229124   1.000000
      7        -20.191213   1.000000
      8        -20.187900   1.000000
      9        -20.143269   1.000000
     10        -20.142864   1.000000
     11         -8.086265   1.000000
     12          1.920345   1.000000
     13          3.447568   1.000000
     14          3.601624   1.000000
     15          5.761170   0.000000
     16          6.420674   0.000000
     17          7.648053   0.000000
     18          7.673544   0.000000

  0.1315789E+00  0.0000000E+00  0.1315789E+00  0.8333333E-02
      1        -20.714228   1.000000
      2        -20.672434   1.000000
      3        -20.672321   1.000000
      4        -20.610249   1.000000
      5        -20.609067   1.000000
      6        -20.228997   1.000000
      7        -20.192113   1.000000
      8        -20.187501   1.000000
      9        -20.143072   1.000000
     10        -20.142763   1.000000
     11         -7.990607   1.000000
     12          1.444354   1.000000
     13          3.217830   1.000000
     14          3.359854   1.000000
     15          6.112958   0.000000
     16          6.282479   0.000000
     17          8.000109   0.000000
     18          8.036862   0.000000

  0.1578947E+00  0.0000000E+00  0.1578947E+00  0.8333333E-02
      1        -20.714652   1.000000
      2        -20.672426   1.000000
      3        -20.672361   1.000000
      4        -20.609516   1.000000
      5        -20.608096   1.000000
      6        -20.228993   1.000000
      7        -20.192919   1.000000
      8        -20.187143   1.000000
      9        -20.142844   1.000000
     10        -20.142744   1.000000
     11         -7.874000   1.000000
     12          0.971083   1.000000
     13          2.984169   1.000000
     14          3.116082   1.000000
     15          6.026657   0.000000
     16          6.523157   0.000000
     17          8.381292   0.000000
     18          8.428015   0.000000

  0.1842105E+00  0.0000000E+00  0.1842105E+00  0.8333333E-02
      1        -20.715093   1.000000
      2        -20.672458   1.000000
      3        -20.672334   1.000000
      4        -20.608644   1.000000
      5        -20.607065   1.000000
      6        -20.229136   1.000000
      7        -20.193456   1.000000
      8        -20.186873   1.000000
      9        -20.143011   1.000000
     10        -20.142247   1.000000
     11         -7.736648   1.000000
     12          0.501606   1.000000
     13          2.754397   1.000000
     14          2.877817   1.000000
     15          5.851208   0.000000
     16          6.774769   0.000000
     17          8.783033   0.000000
     18          8.838869   0.000000

  0.2105263E+00  0.0000000E+00  0.2105263E+00  0.8333333E-02
      1        -20.715518   1.000000
      2        -20.672574   1.000000
      3        -20.672143   1.000000
      4        -20.607634   1.000000
      5        -20.605997   1.000000
      6        -20.229428   1.000000
      7        -20.193643   1.000000
      8        -20.186732   1.000000
      9        -20.143241   1.000000
     10        -20.141552   1.000000
     11         -7.578747   1.000000
     12          0.036637   1.000000
     13          2.533697   1.000000
     14          2.649950   1.000000
     15          5.682644   0.000000
     16          6.920950   0.000000
     17          9.199632   0.000000
     18          9.263902   0.000000

  0.2368421E+00  0.0000000E+00  0.2368421E+00  0.8333333E-02
      1        -20.716045   1.000000
      2        -20.672855   1.000000
      3        -20.671983   1.000000
      4        -20.606589   1.000000
      5        -20.605156   1.000000
      6        -20.229915   1.000000
      7        -20.193693   1.000000
      8        -20.186856   1.000000
      9        -20.143762   1.000000
     10        -20.140774   1.000000
     11         -7.400602   1.000000
     12         -0.423199   1.000000
     13          2.325606   1.000000
     14          2.435785   1.000000
     15          5.528464   0.000000
     16          6.947634   0.000000
     17          9.627399   0.000000
     18          9.699088   0.000000

  0.2631579E+00  0.0000000E+00  0.2631579E+00  0.8333333E-02
      1        -20.716472   1.000000
      2        -20.673097   1.000000
      3        -20.671723   1.000000
      4        -20.605401   1.000000
      5        -20.604447   1.000000
      6        -20.230441   1.000000
      7        -20.193494   1.000000
      8        -20.187077   1.000000
      9        -20.144380   1.000000
     10        -20.139757   1.000000
     11         -7.202529   1.000000
     12         -0.877318   1.000000
     13          2.132629   1.000000
     14          2.237648   1.000000
     15          5.392307   0.000000
     16          6.868659   0.000000
     17         10.063800   0.000000
     18         10.141263   0.000000

  0.2894737E+00  0.0000000E+00  0.2894737E+00  0.8333333E-02
      1        -20.716863   1.000000
      2        -20.673371   1.000000
      3        -20.671334   1.000000
      4        -20.604163   1.000000
      5        -20.603840   1.000000
      6        -20.230953   1.000000
      7        -20.193142   1.000000
      8        -20.187446   1.000000
      9        -20.145051   1.000000
     10        -20.138602   1.000000
     11         -6.984891   1.000000
     12         -1.325118   1.000000
     13          1.956582   1.000000
     14          2.057221   1.000000
     15          5.276540   0.000000
     16          6.715341   0.000000
     17         10.506414   0.000000
     18         10.587605   0.000000

  0.3157895E+00  0.0000000E+00  0.3157895E+00  0.8333333E-02
      1        -20.717298   1.000000
      2        -20.673742   1.000000
      3        -20.670889   1.000000
      4        -20.603423   1.000000
      5        -20.602960   1.000000
      6        -20.231421   1.000000
      7        -20.192775   1.000000
      8        -20.187962   1.000000
      9        -20.145767   1.000000
     10        -20.137406   1.000000
     11         -6.748158   1.000000
     12         -1.765885   1.000000
     13          1.798829   1.000000
     14          1.895769   1.000000
     15          5.182821   0.000000
     16          6.520264   0.000000
     17         10.952188   0.000000
     18         11.035204   0.000000

  0.3421053E+00  0.0000000E+00  0.3421053E+00  0.8333333E-02
      1        -20.717628   1.000000
      2        -20.674053   1.000000
      3        -20.670354   1.000000
      4        -20.603155   1.000000
      5        -20.601758   1.000000
      6        -20.231751   1.000000
      7        -20.192429   1.000000
      8        -20.188527   1.000000
      9        -20.146451   1.000000
     10        -20.136164   1.000000
     11         -6.492810   1.000000
     12         -2.198852   1.000000
     13          1.660420   1.000000
     14          1.754266   1.000000
     15          5.112296   0.000000
     16          6.308659   0.000000
     17         11.396847   0.000000
     18         11.480399   0.000000

  0.3684211E+00  0.0000000E+00  0.3684211E+00  0.8333333E-02
      1        -20.717918   1.000000
      2        -20.674354   1.000000
      3        -20.669786   1.000000
      4        -20.603034   1.000000
      5        -20.600641   1.000000
      6        -20.231947   1.000000
      7        -20.192179   1.000000
      8        -20.189115   1.000000
      9        -20.147072   1.000000
     10        -20.134976   1.000000
     11         -6.219434   1.000000
     12         -2.623149   1.000000
     13          1.542149   1.000000
     14          1.633452   1.000000
     15          5.065644   0.000000
     16          6.097734   0.000000
     17         11.834134   0.000000
     18         11.917792   0.000000

  0.3947368E+00  0.0000000E+00  0.3947368E+00  0.8333333E-02
      1        -20.718159   1.000000
      2        -20.674624   1.000000
      3        -20.669224   1.000000
      4        -20.603022   1.000000
      5        -20.599655   1.000000
      6        -20.232020   1.000000
      7        -20.192041   1.000000
      8        -20.189677   1.000000
      9        -20.147592   1.000000
     10        -20.133905   1.000000
     11         -5.928791   1.000000
     12         -3.037749   1.000000
     13          1.444631   1.000000
     14          1.533901   1.000000
     15          5.043009   0.000000
     16          5.898929   0.000000
     17         12.254352   0.000000
     18         12.338591   0.000000

  0.4210526E+00  0.0000000E+00  0.4210526E+00  0.8333333E-02
      1        -20.718300   1.000000
      2        -20.674804   1.000000
      3        -20.668671   1.000000
      4        -20.603020   1.000000
      5        -20.598823   1.000000
      6        -20.231997   1.000000
      7        -20.191944   1.000000
      8        -20.190155   1.000000
      9        -20.147947   1.000000
     10        -20.132981   1.000000
     11         -5.621831   1.000000
     12         -3.441434   1.000000
     13          1.368337   1.000000
     14          1.456053   1.000000
     15          5.043619   0.000000
     16          5.720396   0.000000
     17         12.641638   0.000000
     18         12.727697   0.000000

  0.4473684E+00  0.0000000E+00  0.4473684E+00  0.8333333E-02
      1        -20.718410   1.000000
      2        -20.674947   1.000000
      3        -20.668229   1.000000
      4        -20.603051   1.000000
      5        -20.598205   1.000000
      6        -20.231918   1.000000
      7        -20.191910   1.000000
      8        -20.190523   1.000000
      9        -20.148184   1.000000
     10        -20.132268   1.000000
     11         -5.300269   1.000000
     12         -3.832253   1.000000
     13          1.313608   1.000000
     14          1.400229   1.000000
     15          5.064556   0.000000
     16          5.569677   0.000000
     17         12.969633   0.000000
     18         13.059249   0.000000

  0.4736842E+00  0.0000000E+00  0.4736842E+00  0.8333333E-02
      1        -20.718542   1.000000
      2        -20.675115   1.000000
      3        -20.668006   1.000000
      4        -20.603170   1.000000
      5        -20.597913   1.000000
      6        -20.231875   1.000000
      7        -20.192011   1.000000
      8        -20.190850   1.000000
      9        -20.148400   1.000000
     10        -20.131919   1.000000
     11         -4.969735   1.000000
     12         -4.204429   1.000000
     13          1.280680   1.000000
     14          1.366648   1.000000
     15          5.096595   0.000000
     16          5.458775   0.000000
     17         13.197973   0.000000
     18         13.291761   0.000000

  0.5000000E+00  0.0000000E+00  0.5000000E+00  0.8333333E-02
      1        -20.718652   1.000000
      2        -20.675226   1.000000
      3        -20.667952   1.000000
      4        -20.603240   1.000000
      5        -20.597809   1.000000
      6        -20.231861   1.000000
      7        -20.192060   1.000000
      8        -20.190940   1.000000
      9        -20.148481   1.000000
     10        -20.131802   1.000000
     11         -4.717375   1.000000
     12         -4.470690   1.000000
     13          1.269688   1.000000
     14          1.355442   1.000000
     15          5.114863   0.000000
     16          5.414057   0.000000
     17         13.281491   0.000000
     18         13.377253   0.000000

  0.5000000E+00  0.0000000E+00  0.5000000E+00  0.8333333E-02
      1        -20.718652   1.000000
      2        -20.675226   1.000000
      3        -20.667952   1.000000
      4        -20.603240   1.000000
      5        -20.597809   1.000000
      6        -20.231861   1.000000
      7        -20.192060   1.000000
      8        -20.190940   1.000000
      9        -20.148481   1.000000
     10        -20.131802   1.000000
     11         -4.717375   1.000000
     12         -4.470690   1.000000
     13          1.269688   1.000000
     14          1.355442   1.000000
     15          5.114863   0.000000
     16          5.414057   0.000000
     17         13.281498   0.000000
     18         13.377256   0.000000

  0.5065789E+00  0.1315789E-01  0.5065789E+00  0.8333333E-02
      1        -20.718682   1.000000
      2        -20.675230   1.000000
      3        -20.667916   1.000000
      4        -20.603229   1.000000
      5        -20.597813   1.000000
      6        -20.231911   1.000000
      7        -20.192020   1.000000
      8        -20.190945   1.000000
      9        -20.148476   1.000000
     10        -20.131802   1.000000
     11         -4.716231   1.000000
     12         -4.471373   1.000000
     13          1.262131   1.000000
     14          1.356620   1.000000
     15          5.127745   0.000000
     16          5.415216   0.000000
     17         13.268373   0.000000
     18         13.368726   0.000000

  0.5131579E+00  0.2631579E-01  0.5131579E+00  0.8333333E-02
      1        -20.718770   1.000000
      2        -20.675241   1.000000
      3        -20.667808   1.000000
      4        -20.603196   1.000000
      5        -20.597825   1.000000
      6        -20.232059   1.000000
      7        -20.191899   1.000000
      8        -20.190959   1.000000
      9        -20.148462   1.000000
     10        -20.131804   1.000000
     11         -4.712849   1.000000
     12         -4.473384   1.000000
     13          1.239826   1.000000
     14          1.360154   1.000000
     15          5.165970   0.000000
     16          5.418749   0.000000
     17         13.229954   0.000000
     18         13.343302   0.000000

  0.5197368E+00  0.3947368E-01  0.5197368E+00  0.8333333E-02
      1        -20.718903   1.000000
      2        -20.675230   1.000000
      3        -20.667598   1.000000
      4        -20.603140   1.000000
      5        -20.597805   1.000000
      6        -20.232279   1.000000
      7        -20.191679   1.000000
      8        -20.190944   1.000000
      9        -20.148423   1.000000
     10        -20.131794   1.000000
     11         -4.707396   1.000000
     12         -4.476587   1.000000
     13          1.203826   1.000000
     14          1.366042   1.000000
     15          5.228226   0.000000
     16          5.424938   0.000000
     17         13.168842   0.000000
     18         13.301688   0.000000

  0.5263158E+00  0.5263158E-01  0.5263158E+00  0.8333333E-02
      1        -20.719000   1.000000
      2        -20.675238   1.000000
      3        -20.667348   1.000000
      4        -20.603013   1.000000
      5        -20.597793   1.000000
      6        -20.232599   1.000000
      7        -20.191389   1.000000
      8        -20.190932   1.000000
      9        -20.148364   1.000000
     10        -20.131758   1.000000
     11         -4.700187   1.000000
     12         -4.480718   1.000000
     13          1.155716   1.000000
     14          1.374276   1.000000
     15          5.311685   0.000000
     16          5.435054   0.000000
     17         13.088593   0.000000
     18         13.244909   0.000000

  0.5328947E+00  0.6578947E-01  0.5328947E+00  0.8333333E-02
      1        -20.719242   1.000000
      2        -20.675271   1.000000
      3        -20.667051   1.000000
      4        -20.602917   1.000000
      5        -20.597829   1.000000
      6        -20.233003   1.000000
      7        -20.191058   1.000000
      8        -20.190974   1.000000
      9        -20.148324   1.000000
     10        -20.131764   1.000000
     11         -4.691788   1.000000
     12         -4.485295   1.000000
     13          1.097410   1.000000
     14          1.384848   1.000000
     15          5.402302   0.000000
     16          5.461242   0.000000
     17         12.992896   0.000000
     18         13.174258   0.000000

  0.5394737E+00  0.7894737E-01  0.5394737E+00  0.8333333E-02
      1        -20.719504   1.000000
      2        -20.675310   1.000000
      3        -20.666689   1.000000
      4        -20.602795   1.000000
      5        -20.597874   1.000000
      6        -20.233455   1.000000
      7        -20.191024   1.000000
      8        -20.190656   1.000000
      9        -20.148264   1.000000
     10        -20.131772   1.000000
     11         -4.683118   1.000000
     12         -4.489479   1.000000
     13          1.031004   1.000000
     14          1.397748   1.000000
     15          5.440943   0.000000
     16          5.560608   0.000000
     17         12.885149   0.000000
     18         13.091171   0.000000

  0.5460526E+00  0.9210526E-01  0.5460526E+00  0.8333333E-02
      1        -20.719828   1.000000
      2        -20.675356   1.000000
      3        -20.666374   1.000000
      4        -20.602662   1.000000
      5        -20.597930   1.000000
      6        -20.234036   1.000000
      7        -20.191087   1.000000
      8        -20.190250   1.000000
      9        -20.148215   1.000000
     10        -20.131782   1.000000
     11         -4.675637   1.000000
     12         -4.491915   1.000000
     13          0.958576   1.000000
     14          1.412961   1.000000
     15          5.458222   0.000000
     16          5.700497   0.000000
     17         12.768252   0.000000
     18         12.997230   0.000000

  0.5526316E+00  0.1052632E+00  0.5526316E+00  0.8333333E-02
      1        -20.720166   1.000000
      2        -20.675408   1.000000
      3        -20.665956   1.000000
      4        -20.602509   1.000000
      5        -20.597991   1.000000
      6        -20.234603   1.000000
      7        -20.191155   1.000000
      8        -20.189783   1.000000
      9        -20.148159   1.000000
     10        -20.131794   1.000000
     11         -4.671383   1.000000
     12         -4.490681   1.000000
     13          0.882099   1.000000
     14          1.430472   1.000000
     15          5.474809   0.000000
     16          5.858316   0.000000
     17         12.644523   0.000000
     18         12.893765   0.000000

  0.5592105E+00  0.1184211E+00  0.5592105E+00  0.8333333E-02
      1        -20.720593   1.000000
      2        -20.675484   1.000000
      3        -20.665560   1.000000
      4        -20.602382   1.000000
      5        -20.598114   1.000000
      6        -20.235254   1.000000
      7        -20.191286   1.000000
      8        -20.189336   1.000000
      9        -20.148144   1.000000
     10        -20.131824   1.000000
     11         -4.672576   1.000000
     12         -4.483685   1.000000
     13          0.803374   1.000000
     14          1.450261   1.000000
     15          5.492641   0.000000
     16          6.030365   0.000000
     17         12.515859   0.000000
     18         12.782061   0.000000

  0.5657895E+00  0.1315789E+00  0.5657895E+00  0.8333333E-02
      1        -20.720955   1.000000
      2        -20.675548   1.000000
      3        -20.665111   1.000000
      4        -20.602201   1.000000
      5        -20.598190   1.000000
      6        -20.235868   1.000000
      7        -20.191369   1.000000
      8        -20.188822   1.000000
      9        -20.148085   1.000000
     10        -20.131840   1.000000
     11         -4.680704   1.000000
     12         -4.469564   1.000000
     13          0.724016   1.000000
     14          1.472307   1.000000
     15          5.512087   0.000000
     16          6.214696   0.000000
     17         12.383756   0.000000
     18         12.663650   0.000000

  0.5723684E+00  0.1447368E+00  0.5723684E+00  0.8333333E-02
      1        -20.721316   1.000000
      2        -20.675617   1.000000
      3        -20.664659   1.000000
      4        -20.602007   1.000000
      5        -20.598273   1.000000
      6        -20.236486   1.000000
      7        -20.191458   1.000000
      8        -20.188297   1.000000
      9        -20.148028   1.000000
     10        -20.131858   1.000000
     11         -4.695981   1.000000
     12         -4.448237   1.000000
     13          0.645433   1.000000
     14          1.496587   1.000000
     15          5.533231   0.000000
     16          6.409818   0.000000
     17         12.249395   0.000000
     18         12.539633   0.000000

  0.5789474E+00  0.1578947E+00  0.5789474E+00  0.8333333E-02
      1        -20.721668   1.000000
      2        -20.675691   1.000000
      3        -20.664214   1.000000
      4        -20.601804   1.000000
      5        -20.598364   1.000000
      6        -20.237099   1.000000
      7        -20.191553   1.000000
      8        -20.187768   1.000000
      9        -20.147975   1.000000
     10        -20.131879   1.000000
     11         -4.717766   1.000000
     12         -4.420471   1.000000
     13          0.568848   1.000000
     14          1.523072   1.000000
     15          5.556073   0.000000
     16          6.614488   0.000000
     17         12.113689   0.000000
     18         12.410979   0.000000

  0.5855263E+00  0.1710526E+00  0.5855263E+00  0.8333333E-02
      1        -20.722005   1.000000
      2        -20.675769   1.000000
      3        -20.663785   1.000000
      4        -20.601592   1.000000
      5        -20.598461   1.000000
      6        -20.237695   1.000000
      7        -20.191653   1.000000
      8        -20.187240   1.000000
      9        -20.147928   1.000000
     10        -20.131904   1.000000
     11         -4.745262   1.000000
     12         -4.387183   1.000000
     13          0.495303   1.000000
     14          1.551732   1.000000
     15          5.580574   0.000000
     16          6.827630   0.000000
     17         11.977472   0.000000
     18         12.278674   0.000000

  0.5921053E+00  0.1842105E+00  0.5921053E+00  0.8333333E-02
      1        -20.722314   1.000000
      2        -20.675780   1.000000
      3        -20.663358   1.000000
      4        -20.601371   1.000000
      5        -20.598544   1.000000
      6        -20.238256   1.000000
      7        -20.191750   1.000000
      8        -20.186707   1.000000
      9        -20.147882   1.000000
     10        -20.131911   1.000000
     11         -4.777827   1.000000
     12         -4.349107   1.000000
     13          0.425702   1.000000
     14          1.582535   1.000000
     15          5.606678   0.000000
     16          7.048310   0.000000
     17         11.841253   0.000000
     18         12.143295   0.000000

  0.5986842E+00  0.1973684E+00  0.5986842E+00  0.8333333E-02
      1        -20.722617   1.000000
      2        -20.675859   1.000000
      3        -20.662962   1.000000
      4        -20.601184   1.000000
      5        -20.598627   1.000000
      6        -20.238788   1.000000
      7        -20.191830   1.000000
      8        -20.186213   1.000000
      9        -20.147879   1.000000
     10        -20.131936   1.000000
     11         -4.815030   1.000000
     12         -4.306756   1.000000
     13          0.360795   1.000000
     14          1.615444   1.000000
     15          5.634303   0.000000
     16          7.275687   0.000000
     17         11.705719   0.000000
     18         12.006182   0.000000

  0.6052632E+00  0.2105263E+00  0.6052632E+00  0.8333333E-02
      1        -20.722847   1.000000
      2        -20.675932   1.000000
      3        -20.662608   1.000000
      4        -20.600935   1.000000
      5        -20.598739   1.000000
      6        -20.239267   1.000000
      7        -20.191937   1.000000
      8        -20.185694   1.000000
      9        -20.147836   1.000000
     10        -20.131958   1.000000
     11         -4.856585   1.000000
     12         -4.260472   1.000000
     13          0.301208   1.000000
     14          1.650420   1.000000
     15          5.663366   0.000000
     16          7.508971   0.000000
     17         11.571264   0.000000
     18         11.866523   0.000000

  0.6118421E+00  0.2236842E+00  0.6118421E+00  0.8333333E-02
      1        -20.723063   1.000000
      2        -20.676024   1.000000
      3        -20.662315   1.000000
      4        -20.600717   1.000000
      5        -20.598863   1.000000
      6        -20.239713   1.000000
      7        -20.192052   1.000000
      8        -20.185220   1.000000
      9        -20.147830   1.000000
     10        -20.131996   1.000000
     11         -4.902287   1.000000
     12         -4.210480   1.000000
     13          0.247450   1.000000
     14          1.687421   1.000000
     15          5.693763   0.000000
     16          7.747410   0.000000
     17         11.438323   0.000000
     18         11.726205   0.000000

  0.6184211E+00  0.2368421E+00  0.6184211E+00  0.8333333E-02
      1        -20.723175   1.000000
      2        -20.676111   1.000000
      3        -20.662052   1.000000
      4        -20.600489   1.000000
      5        -20.598984   1.000000
      6        -20.240082   1.000000
      7        -20.192158   1.000000
      8        -20.184760   1.000000
      9        -20.147826   1.000000
     10        -20.132028   1.000000
     11         -4.951973   1.000000
     12         -4.156932   1.000000
     13          0.199925   1.000000
     14          1.726403   1.000000
     15          5.725383   0.000000
     16          7.990238   0.000000
     17         11.307271   0.000000
     18         11.585217   0.000000

  0.6250000E+00  0.2500000E+00  0.6250000E+00  0.8333333E-02
      1        -20.723308   1.000000
      2        -20.676206   1.000000
      3        -20.661859   1.000000
      4        -20.600285   1.000000
      5        -20.599122   1.000000
      6        -20.240416   1.000000
      7        -20.192278   1.000000
      8        -20.184331   1.000000
      9        -20.147852   1.000000
     10        -20.132077   1.000000
     11         -5.005494   1.000000
     12         -4.099936   1.000000
     13          0.158940   1.000000
     14          1.767315   1.000000
     15          5.758092   0.000000
     16          8.236615   0.000000
     17         11.178506   0.000000
     18         11.443990   0.000000

  0.3750000E+00  0.3750000E+00  0.7500000E+00  0.8333333E-02
      1        -20.723308   1.000000
      2        -20.676206   1.000000
      3        -20.661859   1.000000
      4        -20.600285   1.000000
      5        -20.599122   1.000000
      6        -20.240416   1.000000
      7        -20.192278   1.000000
      8        -20.184331   1.000000
      9        -20.147852   1.000000
     10        -20.132077   1.000000
     11         -5.005494   1.000000
     12         -4.099936   1.000000
     13          0.158939   1.000000
     14          1.767315   1.000000
     15          5.758093   0.000000
     16          8.236614   0.000000