       N       E                     dE             d eps       ncg     rms          rms(c)
DAV:   1     0.982885338282E+02    0.98289E+02   -0.17965E+04  5182   0.226E+03
DAV:   2     0.177150358207E+00   -0.98111E+02   -0.95704E+02  4736   0.346E+02
DAV:   3    -0.723639388993E+01   -0.74135E+01   -0.74004E+01  4664   0.829E+01
DAV:   4    -0.744614624928E+01   -0.20975E+00   -0.20969E+00  4856   0.172E+01
DAV:   5    -0.745025523849E+01   -0.41090E-02   -0.41089E-02  4838   0.221E+00
DAV:   6    -0.745038991396E+01   -0.13468E-03   -0.13467E-03  4884   0.371E-01
DAV:   7    -0.745039640466E+01   -0.64907E-05   -0.64908E-05  5164   0.709E-02
DAV:   8    -0.745039667539E+01   -0.27073E-06   -0.27091E-06  3680   0.134E-02
   1 F= -.74503967E+01 E0= -.74492003E+01  d E =-.239273E-02
