 vasp.6.3.2 27Jun22 (build Nov 28 2025 11:56:12) complex                         
 executed on             LinuxGNU date 2026.01.18  23:57:09
 running    2 mpi-ranks, with    1 threads/rank
 distrk:  each k-point on    2 cores,    1 groups
 distr:  one band on NCORE=   1 cores,    2 groups


--------------------------------------------------------------------------------------------------------


 INCAR:
   ISTART = 1            (Read existing wavefunction, if there)
   ISPIN = 1            (Non-Spin polarised DFT)
   ICHARG = 11           (Non-self-consistent: GGA/LDA band structures)
   LREAL = .FALSE.       (Projection operators: automatic)
   ENCUT = 450          (Cut-off energy for plane wave basis set, in eV)
   PREC = Accurate     (Precision level: Normal or Accurate, set Accurate when perform structure lattice relaxation calculation)
   LWAVE = .TRUE.        (Write WAVECAR or not)
   LCHARG = .TRUE.        (Write CHGCAR or not)
   ADDGRID = .TRUE.        (Increase grid, helps GGA convergence)
   ISMEAR = 0            (gaussian smearing method)
   SIGMA = 0.05         (please check the width of the smearing)
   LORBIT = 11           (PAW radii for projected DOS)
   NEDOS = 2001         (DOSCAR points)
   NELM = 60           (Max electronic SCF steps)
   EDIFF = 1E-06        (SCF energy convergence, in eV)

 POTCAR:    PAW_PBE Ge_d 03Jul2007                
 POTCAR:    PAW_PBE Ge_d 03Jul2007                
   VRHFIN =Ge: 3d4s4p                                                                               
   LEXCH  = PE                                                                                      
   EATOM  =  2596.2402 eV,  190.8183 Ry                                                             
                                                                                                    
   TITEL  = PAW_PBE Ge_d 03Jul2007                                                                  
   LULTRA =        F    use ultrasoft PP ?                                                          
   IUNSCR =        1    unscreen: 0-lin 1-nonlin 2-no                                               
   RPACOR =    2.000    partial core radius                                                         
   POMASS =   72.610; ZVAL   =   14.000    mass and valenz                                          
   RCORE  =    2.300    outmost cutoff radius                                                       
   RWIGS  =    2.300; RWIGS  =    1.217    wigner-seitz radius (au A)                               
   ENMAX  =  310.294; ENMIN  =  232.720 eV                                                          
   ICORE  =        3    local potential                                                             
   LCOR   =        T    correct aug charges                                                         
   LPAW   =        T    paw PP                                                                      
   EAUG   =  531.356                                                                                
   DEXC   =    0.000                                                                                
   RMAX   =    2.342    core radius for proj-oper                                                   
   RAUG   =    1.300    factor for augmentation sphere                                              
   RDEP   =    2.318    radius for radial grids                                                     
   RDEPT  =    1.783    core radius for aug-charge                                                  
                                                                                                    
   Atomic configuration                                                                             
    9 entries                                                                                       
     n  l   j            E        occ.                                                              
     1  0  0.50    -10959.8463   2.0000                                                             
     2  0  0.50     -1371.6056   2.0000                                                             
     2  1  1.50     -1198.4791   6.0000                                                             
     3  0  0.50      -168.4733   2.0000                                                             
     3  1  1.50      -115.6019   6.0000                                                             
     3  2  2.50       -29.3106  10.0000                                                             
     4  0  0.50       -11.7309   2.0000                                                             
     4  1  0.50        -3.8952   2.0000                                                             
     4  3  2.50        -4.0817   0.0000                                                             
   Description                                                                                      
     l       E           TYP  RCUT    TYP  RCUT                                                     
     2    -29.3105938     23  2.200                                                                 
     2    -13.6058260     23  2.200                                                                 
     0    -11.7309493     23  2.300                                                                 
     0     -7.4578696     23  2.300                                                                 
     1     -3.8952261     23  2.300                                                                 
     1      6.1178114     23  2.300                                                                 
     3     -1.3605826     23  2.300                                                                 
  local pseudopotential read in
  partial core-charges read in
  partial kinetic energy density read in
  atomic valenz-charges read in
  non local Contribution for L=           2  read in
    real space projection operators read in
  non local Contribution for L=           2  read in
    real space projection operators read in
  non local Contribution for L=           0  read in
    real space projection operators read in
  non local Contribution for L=           0  read in
    real space projection operators read in
  non local Contribution for L=           1  read in
    real space projection operators read in
  non local Contribution for L=           1  read in
    real space projection operators read in
    PAW grid and wavefunctions read in

   number of l-projection  operators is LMAX  =           6
   number of lm-projection operators is LMMAX =          18

  PAW_PBE Ge_d 03Jul2007                :
 energy of atom  1       EATOM=-2596.2402
 kinetic energy error for atom=    0.0077 (will be added to EATOM!!)


 POSCAR: Primitive Cell
  positions in direct lattice
  No initial velocities read in
 exchange correlation table for  LEXCH =        8
   RHO(1)=    0.500       N(1)  =     2000
   RHO(2)=  100.500       N(2)  =     4000



--------------------------------------------------------------------------------------------------------


 ion  position               nearest neighbor table
   1  0.500  0.500  0.500-   2 2.37   2 2.37   2 2.37   2 2.37
   2  0.750  0.750  0.750-   1 2.37   1 2.37   1 2.37   1 2.37

  LATTYP: Found a face centered cubic cell.
 ALAT       =     5.4686207326
  
  Lattice vectors:
  
 A1 = (   0.0000000000,   2.7343103663,   2.7343103663)
 A2 = (   2.7343103663,   0.0000000000,   2.7343103663)
 A3 = (   2.7343103663,   2.7343103663,   0.0000000000)


Analysis of symmetry for initial positions (statically):
=====================================================================
 Subroutine PRICEL returns:
 Original cell was already a primitive cell.
 

 Routine SETGRP: Setting up the symmetry group for a 
 face centered cubic supercell.


 Subroutine GETGRP returns: Found 48 space group operations
 (whereof 24 operations were pure point group operations)
 out of a pool of 48 trial point group operations.


The static configuration has the point symmetry T_d .
 The point group associated with its full space group is O_h .


Analysis of symmetry for dynamics (positions and initial velocities):
=====================================================================
 Subroutine PRICEL returns:
 Original cell was already a primitive cell.
 

 Routine SETGRP: Setting up the symmetry group for a 
 face centered cubic supercell.


 Subroutine GETGRP returns: Found 48 space group operations
 (whereof 24 operations were pure point group operations)
 out of a pool of 48 trial point group operations.


The dynamic configuration has the point symmetry T_d .
 The point group associated with its full space group is O_h .


 Subroutine INISYM returns: Found 48 space group operations
 (whereof 24 operations are pure point group operations),
 and found     1 'primitive' translations


----------------------------------------------------------------------------------------

                                     Primitive cell                                     

  volume of cell :      40.8859

  direct lattice vectors                    reciprocal lattice vectors
     0.000000000  2.734310366  2.734310366    -0.182861465  0.182861465  0.182861465
     2.734310366  0.000000000  2.734310366     0.182861465 -0.182861465  0.182861465
     2.734310366  2.734310366  0.000000000     0.182861465  0.182861465 -0.182861465

  length of vectors
     3.866898804  3.866898804  3.866898804     0.316725349  0.316725349  0.316725349

  position of ions in fractional coordinates (direct lattice)
     0.500000000  0.500000000  0.500000000
     0.750000000  0.750000000  0.750000000

  ion indices of the primitive-cell ions
   primitive index   ion index
                 1           1
                 2           2

----------------------------------------------------------------------------------------



 KPOINTS: K-Path Generated by VASPKIT.            

Interpolating k-points between supplied coordinates.

 Line segments in fractional coordinates (reciprocal lattice):
    0.375000  0.375000  0.750000  ...  0.500000  0.250000  0.750000
    0.500000  0.250000  0.750000  ...  0.500000  0.000000  0.500000
    0.500000  0.000000  0.500000  ...  0.000000  0.000000  0.000000
    0.000000  0.000000  0.000000  ...  0.500000  0.500000  0.500000
    0.500000  0.500000  0.500000  ...  0.500000  0.250000  0.750000

 Generated    20 points on each line segment, for a total of    100 k-points:

 Following reciprocal coordinates:
            Coordinates               Weight
  0.375000  0.375000  0.750000      0.010000
  0.381579  0.368421  0.750000      0.010000
  0.388158  0.361842  0.750000      0.010000
  0.394737  0.355263  0.750000      0.010000
  0.401316  0.348684  0.750000      0.010000
  0.407895  0.342105  0.750000      0.010000
  0.414474  0.335526  0.750000      0.010000
  0.421053  0.328947  0.750000      0.010000
  0.427632  0.322368  0.750000      0.010000
  0.434211  0.315789  0.750000      0.010000
  0.440789  0.309211  0.750000      0.010000
  0.447368  0.302632  0.750000      0.010000
  0.453947  0.296053  0.750000      0.010000
  0.460526  0.289474  0.750000      0.010000
  0.467105  0.282895  0.750000      0.010000
  0.473684  0.276316  0.750000      0.010000
  0.480263  0.269737  0.750000      0.010000
  0.486842  0.263158  0.750000      0.010000
  0.493421  0.256579  0.750000      0.010000
  0.500000  0.250000  0.750000      0.010000
  0.500000  0.250000  0.750000      0.010000
  0.500000  0.236842  0.736842      0.010000
  0.500000  0.223684  0.723684      0.010000
  0.500000  0.210526  0.710526      0.010000
  0.500000  0.197368  0.697368      0.010000
  0.500000  0.184211  0.684211      0.010000
  0.500000  0.171053  0.671053      0.010000
  0.500000  0.157895  0.657895      0.010000
  0.500000  0.144737  0.644737      0.010000
  0.500000  0.131579  0.631579      0.010000
  0.500000  0.118421  0.618421      0.010000
  0.500000  0.105263  0.605263      0.010000
  0.500000  0.092105  0.592105      0.010000
  0.500000  0.078947  0.578947      0.010000
  0.500000  0.065789  0.565789      0.010000
  0.500000  0.052632  0.552632      0.010000
  0.500000  0.039474  0.539474      0.010000
  0.500000  0.026316  0.526316      0.010000
  0.500000  0.013158  0.513158      0.010000
  0.500000  0.000000  0.500000      0.010000
  0.500000  0.000000  0.500000      0.010000
  0.473684  0.000000  0.473684      0.010000
  0.447368  0.000000  0.447368      0.010000
  0.421053  0.000000  0.421053      0.010000
  0.394737  0.000000  0.394737      0.010000
  0.368421  0.000000  0.368421      0.010000
  0.342105  0.000000  0.342105      0.010000
  0.315789  0.000000  0.315789      0.010000
  0.289474  0.000000  0.289474      0.010000
  0.263158  0.000000  0.263158      0.010000
  0.236842  0.000000  0.236842      0.010000
  0.210526  0.000000  0.210526      0.010000
  0.184211  0.000000  0.184211      0.010000
  0.157895  0.000000  0.157895      0.010000
  0.131579  0.000000  0.131579      0.010000
  0.105263  0.000000  0.105263      0.010000
  0.078947  0.000000  0.078947      0.010000
  0.052632  0.000000  0.052632      0.010000
  0.026316  0.000000  0.026316      0.010000
  0.000000  0.000000  0.000000      0.010000
  0.000000  0.000000  0.000000      0.010000
  0.026316  0.026316  0.026316      0.010000
  0.052632  0.052632  0.052632      0.010000
  0.078947  0.078947  0.078947      0.010000
  0.105263  0.105263  0.105263      0.010000
  0.131579  0.131579  0.131579      0.010000
  0.157895  0.157895  0.157895      0.010000
  0.184211  0.184211  0.184211      0.010000
  0.210526  0.210526  0.210526      0.010000
  0.236842  0.236842  0.236842      0.010000
  0.263158  0.263158  0.263158      0.010000
  0.289474  0.289474  0.289474      0.010000
  0.315789  0.315789  0.315789      0.010000
  0.342105  0.342105  0.342105      0.010000
  0.368421  0.368421  0.368421      0.010000
  0.394737  0.394737  0.394737      0.010000
  0.421053  0.421053  0.421053      0.010000
  0.447368  0.447368  0.447368      0.010000
  0.473684  0.473684  0.473684      0.010000
  0.500000  0.500000  0.500000      0.010000
  0.500000  0.500000  0.500000      0.010000
  0.500000  0.486842  0.513158      0.010000
  0.500000  0.473684  0.526316      0.010000
  0.500000  0.460526  0.539474      0.010000
  0.500000  0.447368  0.552632      0.010000
  0.500000  0.434211  0.565789      0.010000
  0.500000  0.421053  0.578947      0.010000
  0.500000  0.407895  0.592105      0.010000
  0.500000  0.394737  0.605263      0.010000
  0.500000  0.381579  0.618421      0.010000
  0.500000  0.368421  0.631579      0.010000
  0.500000  0.355263  0.644737      0.010000
  0.500000  0.342105  0.657895      0.010000
  0.500000  0.328947  0.671053      0.010000
  0.500000  0.315789  0.684211      0.010000
  0.500000  0.302632  0.697368      0.010000
  0.500000  0.289474  0.710526      0.010000
  0.500000  0.276316  0.723684      0.010000
  0.500000  0.263158  0.736842      0.010000
  0.500000  0.250000  0.750000      0.010000

 Following cartesian coordinates:
            Coordinates               Weight
  0.137146  0.137146  0.000000      0.010000
  0.134740  0.139552  0.000000      0.010000
  0.132334  0.141958  0.000000      0.010000
  0.129928  0.144364  0.000000      0.010000
  0.127522  0.146770  0.000000      0.010000
  0.125116  0.149176  0.000000      0.010000
  0.122710  0.151583  0.000000      0.010000
  0.120304  0.153989  0.000000      0.010000
  0.117898  0.156395  0.000000      0.010000
  0.115491  0.158801  0.000000      0.010000
  0.113085  0.161207  0.000000      0.010000
  0.110679  0.163613  0.000000      0.010000
  0.108273  0.166019  0.000000      0.010000
  0.105867  0.168425  0.000000      0.010000
  0.103461  0.170831  0.000000      0.010000
  0.101055  0.173237  0.000000      0.010000
  0.098649  0.175643  0.000000      0.010000
  0.096243  0.178049  0.000000      0.010000
  0.093837  0.180455  0.000000      0.010000
  0.091431  0.182861  0.000000      0.010000
  0.091431  0.182861  0.000000      0.010000
  0.086619  0.182861  0.000000      0.010000
  0.081806  0.182861 -0.000000      0.010000
  0.076994  0.182861 -0.000000      0.010000
  0.072182  0.182861 -0.000000      0.010000
  0.067370  0.182861 -0.000000      0.010000
  0.062558  0.182861  0.000000      0.010000
  0.057746  0.182861 -0.000000      0.010000
  0.052934  0.182861  0.000000      0.010000
  0.048121  0.182861  0.000000      0.010000
  0.043309  0.182861  0.000000      0.010000
  0.038497  0.182861  0.000000      0.010000
  0.033685  0.182861  0.000000      0.010000
  0.028873  0.182861 -0.000000      0.010000
  0.024061  0.182861  0.000000      0.010000
  0.019249  0.182861 -0.000000      0.010000
  0.014436  0.182861  0.000000      0.010000
  0.009624  0.182861  0.000000      0.010000
  0.004812  0.182861 -0.000000      0.010000
  0.000000  0.182861  0.000000      0.010000
  0.000000  0.182861  0.000000      0.010000
  0.000000  0.173237 -0.000000      0.010000
  0.000000  0.163613 -0.000000      0.010000
 -0.000000  0.153989  0.000000      0.010000
  0.000000  0.144364 -0.000000      0.010000
  0.000000  0.134740 -0.000000      0.010000
  0.000000  0.125116 -0.000000      0.010000
 -0.000000  0.115491  0.000000      0.010000
  0.000000  0.105867 -0.000000      0.010000
  0.000000  0.096243 -0.000000      0.010000
  0.000000  0.086619 -0.000000      0.010000
  0.000000  0.076994 -0.000000      0.010000
  0.000000  0.067370 -0.000000      0.010000
  0.000000  0.057746 -0.000000      0.010000
  0.000000  0.048121 -0.000000      0.010000
  0.000000  0.038497 -0.000000      0.010000
  0.000000  0.028873 -0.000000      0.010000
 -0.000000  0.019249  0.000000      0.010000
 -0.000000  0.009624  0.000000      0.010000
  0.000000  0.000000  0.000000      0.010000
  0.000000  0.000000  0.000000      0.010000
  0.004812  0.004812  0.004812      0.010000
  0.009624  0.009624  0.009624      0.010000
  0.014436  0.014436  0.014436      0.010000
  0.019249  0.019249  0.019249      0.010000
  0.024061  0.024061  0.024061      0.010000
  0.028873  0.028873  0.028873      0.010000
  0.033685  0.033685  0.033685      0.010000
  0.038497  0.038497  0.038497      0.010000
  0.043309  0.043309  0.043309      0.010000
  0.048121  0.048121  0.048121      0.010000
  0.052934  0.052934  0.052934      0.010000
  0.057746  0.057746  0.057746      0.010000
  0.062558  0.062558  0.062558      0.010000
  0.067370  0.067370  0.067370      0.010000
  0.072182  0.072182  0.072182      0.010000
  0.076994  0.076994  0.076994      0.010000
  0.081806  0.081806  0.081806      0.010000
  0.086619  0.086619  0.086619      0.010000
  0.091431  0.091431  0.091431      0.010000
  0.091431  0.091431  0.091431      0.010000
  0.091431  0.096243  0.086619      0.010000
  0.091431  0.101055  0.081806      0.010000
  0.091431  0.105867  0.076994      0.010000
  0.091431  0.110679  0.072182      0.010000
  0.091431  0.115491  0.067370      0.010000
  0.091431  0.120304  0.062558      0.010000
  0.091431  0.125116  0.057746      0.010000
  0.091431  0.129928  0.052934      0.010000
  0.091431  0.134740  0.048121      0.010000
  0.091431  0.139552  0.043309      0.010000
  0.091431  0.144364  0.038497      0.010000
  0.091431  0.149176  0.033685      0.010000
  0.091431  0.153989  0.028873      0.010000
  0.091431  0.158801  0.024061      0.010000
  0.091431  0.163613  0.019249      0.010000
  0.091431  0.168425  0.014436      0.010000
  0.091431  0.173237  0.009624      0.010000
  0.091431  0.178049  0.004812      0.010000
  0.091431  0.182861  0.000000      0.010000



--------------------------------------------------------------------------------------------------------




 Dimension of arrays:
   k-points           NKPTS =    100   k-points in BZ     NKDIM =    100   number of bands    NBANDS=     18
   number of dos      NEDOS =   2001   number of ions     NIONS =      2
   non local maximal  LDIM  =      6   non local SUM 2l+1 LMDIM =     18
   total plane-waves  NPLWV =  21952
   max r-space proj   IRMAX =      1   max aug-charges    IRDMAX= 144637
   dimension x,y,z NGX =    28 NGY =   28 NGZ =   28
   dimension x,y,z NGXF=    56 NGYF=   56 NGZF=   56
   support grid    NGXF=   112 NGYF=  112 NGZF=  112
   ions per type =               2
   NGX,Y,Z   is equivalent  to a cutoff of  12.04, 12.04, 12.04 a.u.
   NGXF,Y,Z  is equivalent  to a cutoff of  24.08, 24.08, 24.08 a.u.

 SYSTEM =  unknown system                          
 POSCAR =  Primitive Cell                          

 Startparameter for this run:
   NWRITE =      2    write-flag & timer
   PREC   = accura    normal or accurate (medium, high low for compatibility)
   ISTART =      1    job   : 0-new  1-cont  2-samecut
   ICHARG =     11    charge: 1-file 2-atom 10-const
   ISPIN  =      1    spin polarized calculation?
   LNONCOLLINEAR =      F non collinear calculations
   LSORBIT =      F    spin-orbit coupling
   INIWAV =      1    electr: 0-lowe 1-rand  2-diag
   LASPH  =      F    aspherical Exc in radial PAW
 Electronic Relaxation 1
   ENCUT  =  450.0 eV  33.07 Ry    5.75 a.u.   6.69  6.69  6.69*2*pi/ulx,y,z
   ENINI  =  450.0     initial cutoff
   ENAUG  =  531.4 eV  augmentation charge cutoff
   NELM   =     60;   NELMIN=  2; NELMDL=  0     # of ELM steps 
   EDIFF  = 0.1E-05   stopping-criterion for ELM
   LREAL  =      F    real-space projection
   NLSPLINE    = F    spline interpolate recip. space projectors
   LCOMPAT=      F    compatible to vasp.4.4
   GGA_COMPAT  = T    GGA compatible to vasp.4.4-vasp.4.6
   LMAXPAW     = -100 max onsite density
   LMAXMIX     =    2 max onsite mixed and CHGCAR
   VOSKOWN=      0    Vosko Wilk Nusair interpolation
   ROPT   =    0.00000
 Ionic relaxation
   EDIFFG = 0.1E-04   stopping-criterion for IOM
   NSW    =      0    number of steps for IOM
   NBLOCK =      1;   KBLOCK =      1    inner block; outer block 
   IBRION =     -1    ionic relax: 0-MD 1-quasi-New 2-CG
   NFREE  =      0    steps in history (QN), initial steepest desc. (CG)
   ISIF   =      2    stress and relaxation
   IWAVPR =     10    prediction:  0-non 1-charg 2-wave 3-comb
   ISYM   =      2    0-nonsym 1-usesym 2-fastsym
   LCORR  =      T    Harris-Foulkes like correction to forces

   POTIM  = 0.5000    time-step for ionic-motion
   TEIN   =    0.0    initial temperature
   TEBEG  =    0.0;   TEEND  =   0.0 temperature during run
   SMASS  =  -3.00    Nose mass-parameter (am)
   estimated Nose-frequenzy (Omega)   =  0.10E-29 period in steps = 0.13E+47 mass=  -0.342E-27a.u.
   SCALEE = 1.0000    scale energy and forces
   NPACO  =    256;   APACO  = 10.0  distance and # of slots for P.C.
   PSTRESS=    0.0 pullay stress

  Mass of Ions in am
   POMASS =  72.61
  Ionic Valenz
   ZVAL   =  14.00
  Atomic Wigner-Seitz radii
   RWIGS  =  -1.00
  virtual crystal weights 
   VCA    =   1.00
   NELECT =      28.0000    total number of electrons
   NUPDOWN=      -1.0000    fix difference up-down

 DOS related values:
   EMIN   =  10.00;   EMAX   =-10.00  energy-range for DOS
   EFERMI =   0.00
   ISMEAR =     0;   SIGMA  =   0.05  broadening in eV -4-tet -1-fermi 0-gaus

 Electronic relaxation 2 (details)
   IALGO  =     38    algorithm
   LDIAG  =      T    sub-space diagonalisation (order eigenvalues)
   LSUBROT=      F    optimize rotation matrix (better conditioning)
   TURBO    =      0    0=normal 1=particle mesh
   IRESTART =      0    0=no restart 2=restart with 2 vectors
   NREBOOT  =      0    no. of reboots
   NMIN     =      0    reboot dimension
   EREF     =   0.00    reference energy to select bands
   IMIX   =      4    mixing-type and parameters
     AMIX     =   0.40;   BMIX     =  1.00
     AMIX_MAG =   1.60;   BMIX_MAG =  1.00
     AMIN     =   0.10
     WC   =   100.;   INIMIX=   1;  MIXPRE=   1;  MAXMIX= -45

 Intra band minimization:
   WEIMIN = 0.0000     energy-eigenvalue tresh-hold
   EBREAK =  0.14E-07  absolut break condition
   DEPER  =   0.30     relativ break condition  

   TIME   =   0.40     timestep for ELM

  volume/ion in A,a.u.               =      20.44       137.96
  Fermi-wavevector in a.u.,A,eV,Ry     =   1.443011  2.726896 28.331157  2.082281
  Thomas-Fermi vector in A             =   2.561467

 Write flags
   LWAVE        =      T    write WAVECAR
   LDOWNSAMPLE  =      F    k-point downsampling of WAVECAR
   LCHARG       =      T    write CHGCAR
   LVTOT        =      F    write LOCPOT, total local potential
   LVHAR        =      F    write LOCPOT, Hartree potential only
   LELF         =      F    write electronic localiz. function (ELF)
   LORBIT       =     11    0 simple, 1 ext, 2 COOP (PROOUT), +10 PAW based schemes


 Dipole corrections
   LMONO  =      F    monopole corrections only (constant potential shift)
   LDIPOL =      F    correct potential (dipole corrections)
   IDIPOL =      0    1-x, 2-y, 3-z, 4-all directions 
   EPSILON=  1.0000000 bulk dielectric constant

 Exchange correlation treatment:
   GGA     =    --    GGA type
   LEXCH   =     8    internal setting for exchange type
   LIBXC   =     F    Libxc                    
   VOSKOWN =     0    Vosko Wilk Nusair interpolation
   LHFCALC =     F    Hartree Fock is set to
   LHFONE  =     F    Hartree Fock one center treatment
   AEXX    =    0.0000 exact exchange contribution

 Linear response parameters
   LEPSILON=     F    determine dielectric tensor
   LRPA    =     F    only Hartree local field effects (RPA)
   LNABLA  =     F    use nabla operator in PAW spheres
   LVEL    =     F    velocity operator in full k-point grid
   CSHIFT  =0.1000    complex shift for real part using Kramers Kronig
   OMEGAMAX=  -1.0    maximum frequency
   DEG_THRESHOLD= 0.2000000E-02 threshold for treating states as degnerate
   RTIME   =   -0.100 relaxation time in fs
  (WPLASMAI=    0.000 imaginary part of plasma frequency in eV, 0.658/RTIME)
   DFIELD  = 0.0000000 0.0000000 0.0000000 field for delta impulse in time

  Optional k-point grid parameters
   LKPOINTS_OPT  =     F    use optional k-point grid
   KPOINTS_OPT_MODE=     1    mode for optional k-point grid

 Orbital magnetization related:
   ORBITALMAG=     F  switch on orbital magnetization
   LCHIMAG   =     F  perturbation theory with respect to B field
   DQ        =  0.001000  dq finite difference perturbation B field
   LLRAUG    =     F  two centre corrections for induced B field



--------------------------------------------------------------------------------------------------------


 Static calculation
 charge density and potential remain constant during run
 non-spin polarized calculation
 Variant of blocked Davidson
 Davidson routine will perform the subspace rotation
 perform sub-space diagonalisation
    after iterative eigenvector-optimisation
 no mixing
 using additional bands            4
 reciprocal scheme for non local part
 use partial core corrections
 calculate Harris-corrections to forces   (improved forces if not selfconsistent)
 use gradient corrections 
 WARNING: stress and forces are not correct
  (second derivative of E(xc) not defined)
 use of overlap-Matrix (Vanderbilt PP)
 Gauss-broadening in eV      SIGMA  =   0.05


--------------------------------------------------------------------------------------------------------


  energy-cutoff  :      450.00
  volume of cell :       40.89
      direct lattice vectors                 reciprocal lattice vectors
     0.000000000  2.734310366  2.734310366    -0.182861465  0.182861465  0.182861465
     2.734310366  0.000000000  2.734310366     0.182861465 -0.182861465  0.182861465
     2.734310366  2.734310366  0.000000000     0.182861465  0.182861465 -0.182861465

  length of vectors
     3.866898804  3.866898804  3.866898804     0.316725349  0.316725349  0.316725349



 old parameters found on file WAVECAR:
  energy-cutoff  :      450.00
  volume of cell :       40.89
      direct lattice vectors                 reciprocal lattice vectors
     0.000000000  2.734310366  2.734310366    -0.182861465  0.182861465  0.182861465
     2.734310366  0.000000000  2.734310366     0.182861465 -0.182861465  0.182861465
     2.734310366  2.734310366  0.000000000     0.182861465  0.182861465 -0.182861465

  length of vectors


 k-points in units of 2pi/SCALE and weight: K-Path Generated by VASPKIT.            
   0.13714610  0.13714610  0.00000000       0.010
   0.13474003  0.13955217  0.00000000       0.010
   0.13233396  0.14195824  0.00000000       0.010
   0.12992788  0.14436431  0.00000000       0.010
   0.12752181  0.14677039  0.00000000       0.010
   0.12511574  0.14917646  0.00000000       0.010
   0.12270967  0.15158253  0.00000000       0.010
   0.12030360  0.15398860  0.00000000       0.010
   0.11789752  0.15639467  0.00000000       0.010
   0.11549145  0.15880075  0.00000000       0.010
   0.11308538  0.16120682  0.00000000       0.010
   0.11067931  0.16361289  0.00000000       0.010
   0.10827324  0.16601896  0.00000000       0.010
   0.10586716  0.16842503  0.00000000       0.010
   0.10346109  0.17083111  0.00000000       0.010
   0.10105502  0.17323718  0.00000000       0.010
   0.09864895  0.17564325  0.00000000       0.010
   0.09624288  0.17804932  0.00000000       0.010
   0.09383680  0.18045539  0.00000000       0.010
   0.09143073  0.18286147  0.00000000       0.010
   0.09143073  0.18286147  0.00000000       0.010
   0.08661859  0.18286147  0.00000000       0.010
   0.08180644  0.18286147 -0.00000000       0.010
   0.07699430  0.18286147 -0.00000000       0.010
   0.07218216  0.18286147 -0.00000000       0.010
   0.06737001  0.18286147 -0.00000000       0.010
   0.06255787  0.18286147 -0.00000000       0.010
   0.05774573  0.18286147 -0.00000000       0.010
   0.05293358  0.18286147  0.00000000       0.010
   0.04812144  0.18286147  0.00000000       0.010
   0.04330929  0.18286147 -0.00000000       0.010
   0.03849715  0.18286147  0.00000000       0.010
   0.03368501  0.18286147  0.00000000       0.010
   0.02887286  0.18286147 -0.00000000       0.010
   0.02406072  0.18286147  0.00000000       0.010
   0.01924858  0.18286147 -0.00000000       0.010
   0.01443643  0.18286147  0.00000000       0.010
   0.00962429  0.18286147  0.00000000       0.010
   0.00481214  0.18286147 -0.00000000       0.010
   0.00000000  0.18286147  0.00000000       0.010
   0.00000000  0.18286147  0.00000000       0.010
   0.00000000  0.17323718 -0.00000000       0.010
   0.00000000  0.16361289 -0.00000000       0.010
  -0.00000000  0.15398860  0.00000000       0.010
   0.00000000  0.14436431 -0.00000000       0.010
   0.00000000  0.13474003 -0.00000000       0.010
   0.00000000  0.12511574 -0.00000000       0.010
  -0.00000000  0.11549145  0.00000000       0.010
   0.00000000  0.10586716 -0.00000000       0.010
   0.00000000  0.09624288 -0.00000000       0.010
   0.00000000  0.08661859 -0.00000000       0.010
   0.00000000  0.07699430 -0.00000000       0.010
   0.00000000  0.06737001 -0.00000000       0.010
   0.00000000  0.05774573 -0.00000000       0.010
   0.00000000  0.04812144 -0.00000000       0.010
   0.00000000  0.03849715 -0.00000000       0.010
   0.00000000  0.02887286 -0.00000000       0.010
  -0.00000000  0.01924858  0.00000000       0.010
  -0.00000000  0.00962429  0.00000000       0.010
   0.00000000  0.00000000  0.00000000       0.010
   0.00000000  0.00000000  0.00000000       0.010
   0.00481214  0.00481214  0.00481214       0.010
   0.00962429  0.00962429  0.00962429       0.010
   0.01443643  0.01443643  0.01443643       0.010
   0.01924858  0.01924858  0.01924858       0.010
   0.02406072  0.02406072  0.02406072       0.010
   0.02887286  0.02887286  0.02887286       0.010
   0.03368501  0.03368501  0.03368501       0.010
   0.03849715  0.03849715  0.03849715       0.010
   0.04330929  0.04330929  0.04330929       0.010
   0.04812144  0.04812144  0.04812144       0.010
   0.05293358  0.05293358  0.05293358       0.010
   0.05774573  0.05774573  0.05774573       0.010
   0.06255787  0.06255787  0.06255787       0.010
   0.06737001  0.06737001  0.06737001       0.010
   0.07218216  0.07218216  0.07218216       0.010
   0.07699430  0.07699430  0.07699430       0.010
   0.08180644  0.08180644  0.08180644       0.010
   0.08661859  0.08661859  0.08661859       0.010
   0.09143073  0.09143073  0.09143073       0.010
   0.09143073  0.09143073  0.09143073       0.010
   0.09143073  0.09624288  0.08661859       0.010
   0.09143073  0.10105502  0.08180644       0.010
   0.09143073  0.10586716  0.07699430       0.010
   0.09143073  0.11067931  0.07218216       0.010
   0.09143073  0.11549145  0.06737001       0.010
   0.09143073  0.12030360  0.06255787       0.010
   0.09143073  0.12511574  0.05774573       0.010
   0.09143073  0.12992788  0.05293358       0.010
   0.09143073  0.13474003  0.04812144       0.010
   0.09143073  0.13955217  0.04330929       0.010
   0.09143073  0.14436431  0.03849715       0.010
   0.09143073  0.14917646  0.03368501       0.010
   0.09143073  0.15398860  0.02887286       0.010
   0.09143073  0.15880075  0.02406072       0.010
   0.09143073  0.16361289  0.01924858       0.010
   0.09143073  0.16842503  0.01443643       0.010
   0.09143073  0.17323718  0.00962429       0.010
   0.09143073  0.17804932  0.00481214       0.010
   0.09143073  0.18286147  0.00000000       0.010

 k-points in reciprocal lattice and weights: K-Path Generated by VASPKIT.            
   0.37500000  0.37500000  0.75000000       0.010
   0.38157895  0.36842105  0.75000000       0.010
   0.38815789  0.36184211  0.75000000       0.010
   0.39473684  0.35526316  0.75000000       0.010
   0.40131579  0.34868421  0.75000000       0.010
   0.40789474  0.34210526  0.75000000       0.010
   0.41447368  0.33552632  0.75000000       0.010
   0.42105263  0.32894737  0.75000000       0.010
   0.42763158  0.32236842  0.75000000       0.010
   0.43421053  0.31578947  0.75000000       0.010
   0.44078947  0.30921053  0.75000000       0.010
   0.44736842  0.30263158  0.75000000       0.010
   0.45394737  0.29605263  0.75000000       0.010
   0.46052632  0.28947368  0.75000000       0.010
   0.46710526  0.28289474  0.75000000       0.010
   0.47368421  0.27631579  0.75000000       0.010
   0.48026316  0.26973684  0.75000000       0.010
   0.48684211  0.26315789  0.75000000       0.010
   0.49342105  0.25657895  0.75000000       0.010
   0.50000000  0.25000000  0.75000000       0.010
   0.50000000  0.25000000  0.75000000       0.010
   0.50000000  0.23684211  0.73684211       0.010
   0.50000000  0.22368421  0.72368421       0.010
   0.50000000  0.21052632  0.71052632       0.010
   0.50000000  0.19736842  0.69736842       0.010
   0.50000000  0.18421053  0.68421053       0.010
   0.50000000  0.17105263  0.67105263       0.010
   0.50000000  0.15789474  0.65789474       0.010
   0.50000000  0.14473684  0.64473684       0.010
   0.50000000  0.13157895  0.63157895       0.010
   0.50000000  0.11842105  0.61842105       0.010
   0.50000000  0.10526316  0.60526316       0.010
   0.50000000  0.09210526  0.59210526       0.010
   0.50000000  0.07894737  0.57894737       0.010
   0.50000000  0.06578947  0.56578947       0.010
   0.50000000  0.05263158  0.55263158       0.010
   0.50000000  0.03947368  0.53947368       0.010
   0.50000000  0.02631579  0.52631579       0.010
   0.50000000  0.01315789  0.51315789       0.010
   0.50000000  0.00000000  0.50000000       0.010
   0.50000000  0.00000000  0.50000000       0.010
   0.47368421  0.00000000  0.47368421       0.010
   0.44736842  0.00000000  0.44736842       0.010
   0.42105263  0.00000000  0.42105263       0.010
   0.39473684  0.00000000  0.39473684       0.010
   0.36842105  0.00000000  0.36842105       0.010
   0.34210526  0.00000000  0.34210526       0.010
   0.31578947  0.00000000  0.31578947       0.010
   0.28947368  0.00000000  0.28947368       0.010
   0.26315789  0.00000000  0.26315789       0.010
   0.23684211  0.00000000  0.23684211       0.010
   0.21052632  0.00000000  0.21052632       0.010
   0.18421053  0.00000000  0.18421053       0.010
   0.15789474  0.00000000  0.15789474       0.010
   0.13157895  0.00000000  0.13157895       0.010
   0.10526316  0.00000000  0.10526316       0.010
   0.07894737  0.00000000  0.07894737       0.010
   0.05263158  0.00000000  0.05263158       0.010
   0.02631579  0.00000000  0.02631579       0.010
   0.00000000  0.00000000  0.00000000       0.010
   0.00000000  0.00000000  0.00000000       0.010
   0.02631579  0.02631579  0.02631579       0.010
   0.05263158  0.05263158  0.05263158       0.010
   0.07894737  0.07894737  0.07894737       0.010
   0.10526316  0.10526316  0.10526316       0.010
   0.13157895  0.13157895  0.13157895       0.010
   0.15789474  0.15789474  0.15789474       0.010
   0.18421053  0.18421053  0.18421053       0.010
   0.21052632  0.21052632  0.21052632       0.010
   0.23684211  0.23684211  0.23684211       0.010
   0.26315789  0.26315789  0.26315789       0.010
   0.28947368  0.28947368  0.28947368       0.010
   0.31578947  0.31578947  0.31578947       0.010
   0.34210526  0.34210526  0.34210526       0.010
   0.36842105  0.36842105  0.36842105       0.010
   0.39473684  0.39473684  0.39473684       0.010
   0.42105263  0.42105263  0.42105263       0.010
   0.44736842  0.44736842  0.44736842       0.010
   0.47368421  0.47368421  0.47368421       0.010
   0.50000000  0.50000000  0.50000000       0.010
   0.50000000  0.50000000  0.50000000       0.010
   0.50000000  0.48684211  0.51315789       0.010
   0.50000000  0.47368421  0.52631579       0.010
   0.50000000  0.46052632  0.53947368       0.010
   0.50000000  0.44736842  0.55263158       0.010
   0.50000000  0.43421053  0.56578947       0.010
   0.50000000  0.42105263  0.57894737       0.010
   0.50000000  0.40789474  0.59210526       0.010
   0.50000000  0.39473684  0.60526316       0.010
   0.50000000  0.38157895  0.61842105       0.010
   0.50000000  0.36842105  0.63157895       0.010
   0.50000000  0.35526316  0.64473684       0.010
   0.50000000  0.34210526  0.65789474       0.010
   0.50000000  0.32894737  0.67105263       0.010
   0.50000000  0.31578947  0.68421053       0.010
   0.50000000  0.30263158  0.69736842       0.010
   0.50000000  0.28947368  0.71052632       0.010
   0.50000000  0.27631579  0.72368421       0.010
   0.50000000  0.26315789  0.73684211       0.010
   0.50000000  0.25000000  0.75000000       0.010

 position of ions in fractional coordinates (direct lattice) 
   0.50000000  0.50000000  0.50000000
   0.75000000  0.75000000  0.75000000

 position of ions in cartesian coordinates  (Angst):
   2.73431037  2.73431037  2.73431037
   4.10146555  4.10146555  4.10146555



--------------------------------------------------------------------------------------------------------


 k-point   1 :   0.3750 0.3750 0.7500  plane waves:     890
 k-point   2 :   0.3816 0.3684 0.7500  plane waves:     890
 k-point   3 :   0.3882 0.3618 0.7500  plane waves:     886
 k-point   4 :   0.3947 0.3553 0.7500  plane waves:     890
 k-point   5 :   0.4013 0.3487 0.7500  plane waves:     886
 k-point   6 :   0.4079 0.3421 0.7500  plane waves:     888
 k-point   7 :   0.4145 0.3355 0.7500  plane waves:     894
 k-point   8 :   0.4211 0.3289 0.7500  plane waves:     894
 k-point   9 :   0.4276 0.3224 0.7500  plane waves:     895
 k-point  10 :   0.4342 0.3158 0.7500  plane waves:     887
 k-point  11 :   0.4408 0.3092 0.7500  plane waves:     887
 k-point  12 :   0.4474 0.3026 0.7500  plane waves:     886
 k-point  13 :   0.4539 0.2961 0.7500  plane waves:     887
 k-point  14 :   0.4605 0.2895 0.7500  plane waves:     884
 k-point  15 :   0.4671 0.2829 0.7500  plane waves:     884
 k-point  16 :   0.4737 0.2763 0.7500  plane waves:     884
 k-point  17 :   0.4803 0.2697 0.7500  plane waves:     884
 k-point  18 :   0.4868 0.2632 0.7500  plane waves:     884
 k-point  19 :   0.4934 0.2566 0.7500  plane waves:     890
 k-point  20 :   0.5000 0.2500 0.7500  plane waves:     892
 k-point  21 :   0.5000 0.2500 0.7500  plane waves:     892
 k-point  22 :   0.5000 0.2368 0.7368  plane waves:     888
 k-point  23 :   0.5000 0.2237 0.7237  plane waves:     888
 k-point  24 :   0.5000 0.2105 0.7105  plane waves:     888
 k-point  25 :   0.5000 0.1974 0.6974  plane waves:     890
 k-point  26 :   0.5000 0.1842 0.6842  plane waves:     890
 k-point  27 :   0.5000 0.1711 0.6711  plane waves:     892
 k-point  28 :   0.5000 0.1579 0.6579  plane waves:     892
 k-point  29 :   0.5000 0.1447 0.6447  plane waves:     888
 k-point  30 :   0.5000 0.1316 0.6316  plane waves:     888
 k-point  31 :   0.5000 0.1184 0.6184  plane waves:     888
 k-point  32 :   0.5000 0.1053 0.6053  plane waves:     884
 k-point  33 :   0.5000 0.0921 0.5921  plane waves:     888
 k-point  34 :   0.5000 0.0789 0.5789  plane waves:     888
 k-point  35 :   0.5000 0.0658 0.5658  plane waves:     888
 k-point  36 :   0.5000 0.0526 0.5526  plane waves:     896
 k-point  37 :   0.5000 0.0395 0.5395  plane waves:     894
 k-point  38 :   0.5000 0.0263 0.5263  plane waves:     890
 k-point  39 :   0.5000 0.0132 0.5132  plane waves:     894
 k-point  40 :   0.5000 0.0000 0.5000  plane waves:     894
 k-point  41 :   0.5000 0.0000 0.5000  plane waves:     894
 k-point  42 :   0.4737 0.0000 0.4737  plane waves:     886
 k-point  43 :   0.4474 0.0000 0.4474  plane waves:     886
 k-point  44 :   0.4211 0.0000 0.4211  plane waves:     886
 k-point  45 :   0.3947 0.0000 0.3947  plane waves:     886
 k-point  46 :   0.3684 0.0000 0.3684  plane waves:     882
 k-point  47 :   0.3421 0.0000 0.3421  plane waves:     866
 k-point  48 :   0.3158 0.0000 0.3158  plane waves:     874
 k-point  49 :   0.2895 0.0000 0.2895  plane waves:     882
 k-point  50 :   0.2632 0.0000 0.2632  plane waves:     881
 k-point  51 :   0.2368 0.0000 0.2368  plane waves:     881
 k-point  52 :   0.2105 0.0000 0.2105  plane waves:     889
 k-point  53 :   0.1842 0.0000 0.1842  plane waves:     885
 k-point  54 :   0.1579 0.0000 0.1579  plane waves:     897
 k-point  55 :   0.1316 0.0000 0.1316  plane waves:     889
 k-point  56 :   0.1053 0.0000 0.1053  plane waves:     889
 k-point  57 :   0.0789 0.0000 0.0789  plane waves:     893
 k-point  58 :   0.0526 0.0000 0.0526  plane waves:     901
 k-point  59 :   0.0263 0.0000 0.0263  plane waves:     893
 k-point  60 :   0.0000 0.0000 0.0000  plane waves:     893
 k-point  61 :   0.0000 0.0000 0.0000  plane waves:     893
 k-point  62 :   0.0263 0.0263 0.0263  plane waves:     893
 k-point  63 :   0.0526 0.0526 0.0526  plane waves:     890
 k-point  64 :   0.0789 0.0789 0.0789  plane waves:     902
 k-point  65 :   0.1053 0.1053 0.1053  plane waves:     899
 k-point  66 :   0.1316 0.1316 0.1316  plane waves:     905
 k-point  67 :   0.1579 0.1579 0.1579  plane waves:     905
 k-point  68 :   0.1842 0.1842 0.1842  plane waves:     905
 k-point  69 :   0.2105 0.2105 0.2105  plane waves:     902
 k-point  70 :   0.2368 0.2368 0.2368  plane waves:     896
 k-point  71 :   0.2632 0.2632 0.2632  plane waves:     890
 k-point  72 :   0.2895 0.2895 0.2895  plane waves:     890
 k-point  73 :   0.3158 0.3158 0.3158  plane waves:     890
 k-point  74 :   0.3421 0.3421 0.3421  plane waves:     884
 k-point  75 :   0.3684 0.3684 0.3684  plane waves:     884
 k-point  76 :   0.3947 0.3947 0.3947  plane waves:     887
 k-point  77 :   0.4211 0.4211 0.4211  plane waves:     881
 k-point  78 :   0.4474 0.4474 0.4474  plane waves:     884
 k-point  79 :   0.4737 0.4737 0.4737  plane waves:     880
 k-point  80 :   0.5000 0.5000 0.5000  plane waves:     886
 k-point  81 :   0.5000 0.5000 0.5000  plane waves:     886
 k-point  82 :   0.5000 0.4868 0.5132  plane waves:     886
 k-point  83 :   0.5000 0.4737 0.5263  plane waves:     882
 k-point  84 :   0.5000 0.4605 0.5395  plane waves:     884
 k-point  85 :   0.5000 0.4474 0.5526  plane waves:     880
 k-point  86 :   0.5000 0.4342 0.5658  plane waves:     882
 k-point  87 :   0.5000 0.4211 0.5789  plane waves:     882
 k-point  88 :   0.5000 0.4079 0.5921  plane waves:     884
 k-point  89 :   0.5000 0.3947 0.6053  plane waves:     886
 k-point  90 :   0.5000 0.3816 0.6184  plane waves:     882
 k-point  91 :   0.5000 0.3684 0.6316  plane waves:     882
 k-point  92 :   0.5000 0.3553 0.6447  plane waves:     880
 k-point  93 :   0.5000 0.3421 0.6579  plane waves:     886
 k-point  94 :   0.5000 0.3289 0.6711  plane waves:     886
 k-point  95 :   0.5000 0.3158 0.6842  plane waves:     888
 k-point  96 :   0.5000 0.3026 0.6974  plane waves:     888
 k-point  97 :   0.5000 0.2895 0.7105  plane waves:     888
 k-point  98 :   0.5000 0.2763 0.7237  plane waves:     884
 k-point  99 :   0.5000 0.2632 0.7368  plane waves:     888
 k-point 100 :   0.5000 0.2500 0.7500  plane waves:     892

 maximum and minimum number of plane-waves per node :       905      866

 maximum number of plane-waves:       905
 maximum index in each direction: 
   IXMAX=    6   IYMAX=    6   IZMAX=    6
   IXMIN=   -7   IYMIN=   -7   IZMIN=   -7


 serial   3D FFT for wavefunctions
 parallel 3D FFT for charge:
    minimum data exchange during FFTs selected (reduces bandwidth)


 total amount of memory used by VASP MPI-rank0    75002. kBytes
=======================================================================

   base      :      30000. kBytes
   nonl-proj :      13075. kBytes
   fftplans  :      13127. kBytes
   grid      :       5205. kBytes
   one-center:         31. kBytes
   wavefun   :      13564. kBytes

     INWAV:  cpu time      0.0260: real time      0.0260
 initial charge density was supplied:
 number of electron      28.0000002 magnetization 
 keeping initial charge density in first step


--------------------------------------------------------------------------------------------------------


 Maximum index for augmentation-charges        70109 (set IRDMAX)


--------------------------------------------------------------------------------------------------------


 First call to EWALD:  gamma=   0.514
 Maximum number of real-space cells 3x 3x 3
 Maximum number of reciprocal cells 3x 3x 3

    FEWALD:  cpu time      0.0007: real time      0.0007


--------------------------------------- Iteration      1(   1)  ---------------------------------------


    POTLOK:  cpu time      0.0515: real time      0.0515
    SETDIJ:  cpu time      0.0710: real time      0.0710
     EDDAV:  cpu time      2.0292: real time      2.0293
       DOS:  cpu time      0.0018: real time      0.0018
    --------------------------------------------
      LOOP:  cpu time      2.1536: real time      2.1537

 eigenvalue-minimisations  :  3702
 total energy-change (2. order) :-0.7306104E+01  (-0.1161035E+02)
 number of electron      28.0000002 magnetization 
 augmentation part       28.0000002 magnetization 

 Free energy of the ion-electron system (eV)
  ---------------------------------------------------
  alpha Z        PSCENC =       143.31627977
  Ewald energy   TEWEN  =     -2780.12958164
  -Hartree energ DENC   =     -1448.12096303
  -exchange      EXHF   =         0.00000000
  -V(xc)+E(xc)   XCENC  =       146.50262537
  PAW double counting   =      4722.24551835    -5599.58563893
  entropy T*S    EENTRO =        -0.00000000
  eigenvalues    EBANDS =      -383.99942143
  atomic energy  EATOM  =      5192.46507749
  Solvation  Ediel_sol  =         0.00000000
  ---------------------------------------------------
  free energy    TOTEN  =        -7.30610404 eV

  energy without entropy =       -7.30610404  energy(sigma->0) =       -7.30610404


--------------------------------------------------------------------------------------------------------




--------------------------------------- Iteration      1(   2)  ---------------------------------------


     EDDAV:  cpu time      1.8458: real time      1.8462
       DOS:  cpu time      0.0035: real time      0.0035
    --------------------------------------------
      LOOP:  cpu time      1.8493: real time      1.8496

 eigenvalue-minimisations  :  3072
 total energy-change (2. order) :-0.8271179E+00  (-0.8256977E+00)
 number of electron      28.0000002 magnetization 
 augmentation part       28.0000002 magnetization 

 Free energy of the ion-electron system (eV)
  ---------------------------------------------------
  alpha Z        PSCENC =       143.31627977
  Ewald energy   TEWEN  =     -2780.12958164
  -Hartree energ DENC   =     -1448.12096303
  -exchange      EXHF   =         0.00000000
  -V(xc)+E(xc)   XCENC  =       146.50262537
  PAW double counting   =      4722.24551835    -5599.58563893
  entropy T*S    EENTRO =        -0.00000000
  eigenvalues    EBANDS =      -384.82653933
  atomic energy  EATOM  =      5192.46507749
  Solvation  Ediel_sol  =         0.00000000
  ---------------------------------------------------
  free energy    TOTEN  =        -8.13322195 eV

  energy without entropy =       -8.13322195  energy(sigma->0) =       -8.13322195


--------------------------------------------------------------------------------------------------------




--------------------------------------- Iteration      1(   3)  ---------------------------------------


     EDDAV:  cpu time      1.8776: real time      1.8779
       DOS:  cpu time      0.0034: real time      0.0034
    --------------------------------------------
      LOOP:  cpu time      1.8809: real time      1.8813

 eigenvalue-minimisations  :  3112
 total energy-change (2. order) :-0.1387844E-01  (-0.1387418E-01)
 number of electron      28.0000002 magnetization 
 augmentation part       28.0000002 magnetization 

 Free energy of the ion-electron system (eV)
  ---------------------------------------------------
  alpha Z        PSCENC =       143.31627977
  Ewald energy   TEWEN  =     -2780.12958164
  -Hartree energ DENC   =     -1448.12096303
  -exchange      EXHF   =         0.00000000
  -V(xc)+E(xc)   XCENC  =       146.50262537
  PAW double counting   =      4722.24551835    -5599.58563893
  entropy T*S    EENTRO =        -0.00000000
  eigenvalues    EBANDS =      -384.84041777
  atomic energy  EATOM  =      5192.46507749
  Solvation  Ediel_sol  =         0.00000000
  ---------------------------------------------------
  free energy    TOTEN  =        -8.14710039 eV

  energy without entropy =       -8.14710039  energy(sigma->0) =       -8.14710039


--------------------------------------------------------------------------------------------------------




--------------------------------------- Iteration      1(   4)  ---------------------------------------


     EDDAV:  cpu time      1.8034: real time      1.8038
       DOS:  cpu time      0.0102: real time      0.0102
    --------------------------------------------
      LOOP:  cpu time      1.8136: real time      1.8140

 eigenvalue-minimisations  :  3128
 total energy-change (2. order) :-0.3431107E-03  (-0.3430976E-03)
 number of electron      28.0000002 magnetization 
 augmentation part       28.0000002 magnetization 

 Free energy of the ion-electron system (eV)
  ---------------------------------------------------
  alpha Z        PSCENC =       143.31627977
  Ewald energy   TEWEN  =     -2780.12958164
  -Hartree energ DENC   =     -1448.12096303
  -exchange      EXHF   =         0.00000000
  -V(xc)+E(xc)   XCENC  =       146.50262537
  PAW double counting   =      4722.24551835    -5599.58563893
  entropy T*S    EENTRO =        -0.00000000
  eigenvalues    EBANDS =      -384.84076088
  atomic energy  EATOM  =      5192.46507749
  Solvation  Ediel_sol  =         0.00000000
  ---------------------------------------------------
  free energy    TOTEN  =        -8.14744350 eV

  energy without entropy =       -8.14744350  energy(sigma->0) =       -8.14744350


--------------------------------------------------------------------------------------------------------




--------------------------------------- Iteration      1(   5)  ---------------------------------------


     EDDAV:  cpu time      1.8579: real time      1.8579
       DOS:  cpu time      0.0069: real time      0.0069
    --------------------------------------------
      LOOP:  cpu time      1.8648: real time      1.8649

 eigenvalue-minimisations  :  3118
 total energy-change (2. order) :-0.1015308E-04  (-0.1015285E-04)
 number of electron      28.0000002 magnetization 
 augmentation part       28.0000002 magnetization 

 Free energy of the ion-electron system (eV)
  ---------------------------------------------------
  alpha Z        PSCENC =       143.31627977
  Ewald energy   TEWEN  =     -2780.12958164
  -Hartree energ DENC   =     -1448.12096303
  -exchange      EXHF   =         0.00000000
  -V(xc)+E(xc)   XCENC  =       146.50262537
  PAW double counting   =      4722.24551835    -5599.58563893
  entropy T*S    EENTRO =        -0.00000000
  eigenvalues    EBANDS =      -384.84077104
  atomic energy  EATOM  =      5192.46507749
  Solvation  Ediel_sol  =         0.00000000
  ---------------------------------------------------
  free energy    TOTEN  =        -8.14745365 eV

  energy without entropy =       -8.14745365  energy(sigma->0) =       -8.14745365


--------------------------------------------------------------------------------------------------------




--------------------------------------- Iteration      1(   6)  ---------------------------------------


     EDDAV:  cpu time      2.1449: real time      2.1449
       DOS:  cpu time      0.0038: real time      0.0038
    --------------------------------------------
      LOOP:  cpu time      2.1487: real time      2.1487

 eigenvalue-minimisations  :  2728
 total energy-change (2. order) :-0.4371932E-06  (-0.4371815E-06)
 number of electron      28.0000002 magnetization 
 augmentation part       28.0000002 magnetization 

 Free energy of the ion-electron system (eV)
  ---------------------------------------------------
  alpha Z        PSCENC =       143.31627977
  Ewald energy   TEWEN  =     -2780.12958164
  -Hartree energ DENC   =     -1448.12096303
  -exchange      EXHF   =         0.00000000
  -V(xc)+E(xc)   XCENC  =       146.50262537
  PAW double counting   =      4722.24551835    -5599.58563893
  entropy T*S    EENTRO =        -0.00000000
  eigenvalues    EBANDS =      -384.84077147
  atomic energy  EATOM  =      5192.46507749
  Solvation  Ediel_sol  =         0.00000000
  ---------------------------------------------------
  free energy    TOTEN  =        -8.14745409 eV

  energy without entropy =       -8.14745409  energy(sigma->0) =       -8.14745409


--------------------------------------------------------------------------------------------------------




 average (electrostatic) potential at core
  the test charge radii are     0.9911
  (the norm of the test charge is              1.0000)
       1 -74.0198       2 -73.4702



 E-fermi :   5.8638     XC(G=0): -10.5044     alpha+bet :-11.5343

 Fermi energy:         5.8638049202

 k-point     1 :       0.3750    0.3750    0.7500
  band No.  band energies     occupation 
      1     -19.5377      2.00000
      2     -19.4693      2.00000
      3     -19.4445      2.00000
      4     -19.3623      2.00000
      5     -19.3556      2.00000
      6     -18.9048      2.00000
      7     -18.8357      2.00000
      8     -18.8212      2.00000
      9     -18.7725      2.00000
     10     -18.7488      2.00000
     11      -4.1670      2.00000
     12      -3.1967      2.00000
     13       0.8193      2.00000
     14       2.7519      2.00000
     15       7.1807      0.00000
     16       9.9953      0.00000
     17      13.5656      0.00000
     18      14.4606      0.00000

 k-point     2 :       0.3816    0.3684    0.7500
  band No.  band energies     occupation 
      1     -19.5377      2.00000
      2     -19.4693      2.00000
      3     -19.4445      2.00000
      4     -19.3624      2.00000
      5     -19.3555      2.00000
      6     -18.9048      2.00000
      7     -18.8358      2.00000
      8     -18.8211      2.00000
      9     -18.7726      2.00000
     10     -18.7487      2.00000
     11      -4.1654      2.00000
     12      -3.1977      2.00000
     13       0.8206      2.00000
     14       2.7431      2.00000
     15       7.1952      0.00000
     16       9.9967      0.00000
     17      13.5261      0.00000
     18      13.6195      0.00000

 k-point     3 :       0.3882    0.3618    0.7500
  band No.  band energies     occupation 
      1     -19.5377      2.00000
      2     -19.4693      2.00000
      3     -19.4444      2.00000
      4     -19.3627      2.00000
      5     -19.3551      2.00000
      6     -18.9048      2.00000
      7     -18.8359      2.00000
      8     -18.8210      2.00000
      9     -18.7730      2.00000
     10     -18.7482      2.00000
     11      -4.1604      2.00000
     12      -3.2007      2.00000
     13       0.8245      2.00000
     14       2.7173      2.00000
     15       7.2385      0.00000
     16      10.0006      0.00000
     17      13.4208      0.00000
     18      13.5532      0.00000

 k-point     4 :       0.3947    0.3553    0.7500
  band No.  band energies     occupation 
      1     -19.5378      2.00000
      2     -19.4695      2.00000
      3     -19.4443      2.00000
      4     -19.3631      2.00000
      5     -19.3546      2.00000
      6     -18.9048      2.00000
      7     -18.8362      2.00000
      8     -18.8209      2.00000
      9     -18.7736      2.00000
     10     -18.7477      2.00000
     11      -4.1522      2.00000
     12      -3.2057      2.00000
     13       0.8310      2.00000
     14       2.6756      2.00000
     15       7.3093      0.00000
     16      10.0071      0.00000
     17      13.2768      0.00000
     18      13.4537      0.00000

 k-point     5 :       0.4013    0.3487    0.7500
  band No.  band energies     occupation 
      1     -19.5378      2.00000
      2     -19.4696      2.00000
      3     -19.4442      2.00000
      4     -19.3635      2.00000
      5     -19.3539      2.00000
      6     -18.9047      2.00000
      7     -18.8365      2.00000
      8     -18.8206      2.00000
      9     -18.7744      2.00000
     10     -18.7469      2.00000
     11      -4.1406      2.00000
     12      -3.2128      2.00000
     13       0.8400      2.00000
     14       2.6197      2.00000
     15       7.4060      0.00000
     16      10.0162      0.00000
     17      13.1134      0.00000
     18      13.3278      0.00000

 k-point     6 :       0.4079    0.3421    0.7500
  band No.  band energies     occupation 
      1     -19.5378      2.00000
      2     -19.4698      2.00000
      3     -19.4441      2.00000
      4     -19.3641      2.00000
      5     -19.3531      2.00000
      6     -18.9047      2.00000
      7     -18.8369      2.00000
      8     -18.8204      2.00000
      9     -18.7753      2.00000
     10     -18.7459      2.00000
     11      -4.1258      2.00000
     12      -3.2221      2.00000
     13       0.8516      2.00000
     14       2.5520      2.00000
     15       7.5264      0.00000
     16      10.0280      0.00000
     17      12.9400      0.00000
     18      13.1822      0.00000

 k-point     7 :       0.4145    0.3355    0.7500
  band No.  band energies     occupation 
      1     -19.5379      2.00000
      2     -19.4700      2.00000
      3     -19.4440      2.00000
      4     -19.3647      2.00000
      5     -19.3524      2.00000
      6     -18.9047      2.00000
      7     -18.8374      2.00000
      8     -18.8201      2.00000
      9     -18.7764      2.00000
     10     -18.7449      2.00000
     11      -4.1078      2.00000
     12      -3.2337      2.00000
     13       0.8658      2.00000
     14       2.4746      2.00000
     15       7.6683      0.00000
     16      10.0422      0.00000
     17      12.7616      0.00000
     18      13.0226      0.00000

 k-point     8 :       0.4211    0.3289    0.7500
  band No.  band energies     occupation 
      1     -19.5380      2.00000
      2     -19.4702      2.00000
      3     -19.4439      2.00000
      4     -19.3653      2.00000
      5     -19.3515      2.00000
      6     -18.9046      2.00000
      7     -18.8379      2.00000
      8     -18.8198      2.00000
      9     -18.7775      2.00000
     10     -18.7438      2.00000
     11      -4.0865      2.00000
     12      -3.2477      2.00000
     13       0.8825      2.00000
     14       2.3900      2.00000
     15       7.8295      0.00000
     16      10.0591      0.00000
     17      12.5808      0.00000
     18      12.8532      0.00000

 k-point     9 :       0.4276    0.3224    0.7500
  band No.  band energies     occupation 
      1     -19.5381      2.00000
      2     -19.4704      2.00000
      3     -19.4438      2.00000
      4     -19.3658      2.00000
      5     -19.3506      2.00000
      6     -18.9045      2.00000
      7     -18.8384      2.00000
      8     -18.8195      2.00000
      9     -18.7786      2.00000
     10     -18.7427      2.00000
     11      -4.0621      2.00000
     12      -3.2642      2.00000
     13       0.9016      2.00000
     14       2.3004      2.00000
     15       8.0078      0.00000
     16      10.0785      0.00000
     17      12.3989      0.00000
     18      12.6773      0.00000

 k-point    10 :       0.4342    0.3158    0.7500
  band No.  band energies     occupation 
      1     -19.5381      2.00000
      2     -19.4706      2.00000
      3     -19.4436      2.00000
      4     -19.3663      2.00000
      5     -19.3497      2.00000
      6     -18.9044      2.00000
      7     -18.8389      2.00000
      8     -18.8191      2.00000
      9     -18.7798      2.00000
     10     -18.7415      2.00000
     11      -4.0345      2.00000
     12      -3.2834      2.00000
     13       0.9232      2.00000
     14       2.2080      2.00000
     15       8.2013      0.00000
     16      10.1003      0.00000
     17      12.2169      0.00000
     18      12.4972      0.00000

 k-point    11 :       0.4408    0.3092    0.7500
  band No.  band energies     occupation 
      1     -19.5382      2.00000
      2     -19.4708      2.00000
      3     -19.4434      2.00000
      4     -19.3669      2.00000
      5     -19.3488      2.00000
      6     -18.9043      2.00000
      7     -18.8394      2.00000
      8     -18.8188      2.00000
      9     -18.7810      2.00000
     10     -18.7404      2.00000
     11      -4.0040      2.00000
     12      -3.3053      2.00000
     13       0.9471      2.00000
     14       2.1147      2.00000
     15       8.4083      0.00000
     16      10.1247      0.00000
     17      12.0355      0.00000
     18      12.3149      0.00000

 k-point    12 :       0.4474    0.3026    0.7500
  band No.  band energies     occupation 
      1     -19.5383      2.00000
      2     -19.4710      2.00000
      3     -19.4433      2.00000
      4     -19.3674      2.00000
      5     -19.3479      2.00000
      6     -18.9042      2.00000
      7     -18.8399      2.00000
      8     -18.8185      2.00000
      9     -18.7821      2.00000
     10     -18.7393      2.00000
     11      -3.9707      2.00000
     12      -3.3300      2.00000
     13       0.9733      2.00000
     14       2.0220      2.00000
     15       8.6271      0.00000
     16      10.1514      0.00000
     17      11.8550      0.00000
     18      12.1317      0.00000

 k-point    13 :       0.4539    0.2961    0.7500
  band No.  band energies     occupation 
      1     -19.5384      2.00000
      2     -19.4712      2.00000
      3     -19.4432      2.00000
      4     -19.3679      2.00000
      5     -19.3470      2.00000
      6     -18.9041      2.00000
      7     -18.8404      2.00000
      8     -18.8182      2.00000
      9     -18.7833      2.00000
     10     -18.7382      2.00000
     11      -3.9347      2.00000
     12      -3.3574      2.00000
     13       1.0018      2.00000
     14       1.9315      2.00000
     15       8.8565      0.00000
     16      10.1805      0.00000
     17      11.6758      0.00000
     18      11.9488      0.00000

 k-point    14 :       0.4605    0.2895    0.7500
  band No.  band energies     occupation 
      1     -19.5384      2.00000
      2     -19.4713      2.00000
      3     -19.4431      2.00000
      4     -19.3684      2.00000
      5     -19.3462      2.00000
      6     -18.9039      2.00000
      7     -18.8409      2.00000
      8     -18.8179      2.00000
      9     -18.7844      2.00000
     10     -18.7372      2.00000
     11      -3.8967      2.00000
     12      -3.3873      2.00000
     13       1.0324      2.00000
     14       1.8445      2.00000
     15       9.0952      0.00000
     16      10.2119      0.00000
     17      11.4981      0.00000
     18      11.7671      0.00000

 k-point    15 :       0.4671    0.2829    0.7500
  band No.  band energies     occupation 
      1     -19.5385      2.00000
      2     -19.4715      2.00000
      3     -19.4430      2.00000
      4     -19.3689      2.00000
      5     -19.3454      2.00000
      6     -18.9038      2.00000
      7     -18.8414      2.00000
      8     -18.8176      2.00000
      9     -18.7855      2.00000
     10     -18.7362      2.00000
     11      -3.8574      2.00000
     12      -3.4191      2.00000
     13       1.0649      2.00000
     14       1.7622      2.00000
     15       9.3418      0.00000
     16      10.2456      0.00000
     17      11.3222      0.00000
     18      11.5875      0.00000

 k-point    16 :       0.4737    0.2763    0.7500
  band No.  band energies     occupation 
      1     -19.5386      2.00000
      2     -19.4716      2.00000
      3     -19.4429      2.00000
      4     -19.3694      2.00000
      5     -19.3447      2.00000
      6     -18.9036      2.00000
      7     -18.8418      2.00000
      8     -18.8173      2.00000
      9     -18.7865      2.00000
     10     -18.7354      2.00000
     11      -3.8183      2.00000
     12      -3.4513      2.00000
     13       1.0992      2.00000
     14       1.6857      2.00000
     15       9.5951      0.00000
     16      10.2813      0.00000
     17      11.1484      0.00000
     18      11.4111      0.00000

 k-point    17 :       0.4803    0.2697    0.7500
  band No.  band energies     occupation 
      1     -19.5387      2.00000
      2     -19.4716      2.00000
      3     -19.4428      2.00000
      4     -19.3699      2.00000
      5     -19.3441      2.00000
      6     -18.9034      2.00000
      7     -18.8421      2.00000
      8     -18.8170      2.00000
      9     -18.7875      2.00000
     10     -18.7346      2.00000
     11      -3.7830      2.00000
     12      -3.4806      2.00000
     13       1.1348      2.00000
     14       1.6160      2.00000
     15       9.8527      0.00000
     16      10.3194      0.00000
     17      10.9773      0.00000
     18      11.2391      0.00000

 k-point    18 :       0.4868    0.2632    0.7500
  band No.  band energies     occupation 
      1     -19.5387      2.00000
      2     -19.4716      2.00000
      3     -19.4428      2.00000
      4     -19.3703      2.00000
      5     -19.3435      2.00000
      6     -18.9032      2.00000
      7     -18.8424      2.00000
      8     -18.8168      2.00000
      9     -18.7884      2.00000
     10     -18.7338      2.00000
     11      -3.7584      2.00000
     12      -3.5001      2.00000
     13       1.1711      2.00000
     14       1.5544      2.00000
     15      10.1084      0.00000
     16      10.3612      0.00000
     17      10.8108      0.00000
     18      11.0740      0.00000

 k-point    19 :       0.4934    0.2566    0.7500
  band No.  band energies     occupation 
      1     -19.5388      2.00000
      2     -19.4717      2.00000
      3     -19.4428      2.00000
      4     -19.3708      2.00000
      5     -19.3431      2.00000
      6     -18.9029      2.00000
      7     -18.8427      2.00000
      8     -18.8166      2.00000
      9     -18.7893      2.00000
     10     -18.7333      2.00000
     11      -3.7551      2.00000
     12      -3.4992      2.00000
     13       1.2068      2.00000
     14       1.5025      2.00000
     15      10.3196      0.00000
     16      10.4308      0.00000
     17      10.6596      0.00000
     18      10.9239      0.00000

 k-point    20 :       0.5000    0.2500    0.7500
  band No.  band energies     occupation 
      1     -19.5389      2.00000
      2     -19.4716      2.00000
      3     -19.4428      2.00000
      4     -19.3712      2.00000
      5     -19.3427      2.00000
      6     -18.9027      2.00000
      7     -18.8429      2.00000
      8     -18.8164      2.00000
      9     -18.7902      2.00000
     10     -18.7327      2.00000
     11      -3.7780      2.00000
     12      -3.4732      2.00000
     13       1.2394      2.00000
     14       1.4633      2.00000
     15      10.3609      0.00000
     16      10.4770      0.00000
     17      10.6373      0.00000
     18      10.8510      0.00000

 k-point    21 :       0.5000    0.2500    0.7500
  band No.  band energies     occupation 
      1     -19.5389      2.00000
      2     -19.4716      2.00000
      3     -19.4428      2.00000
      4     -19.3712      2.00000
      5     -19.3427      2.00000
      6     -18.9027      2.00000
      7     -18.8429      2.00000
      8     -18.8164      2.00000
      9     -18.7902      2.00000
     10     -18.7327      2.00000
     11      -3.7780      2.00000
     12      -3.4732      2.00000
     13       1.2394      2.00000
     14       1.4633      2.00000
     15      10.3609      0.00000
     16      10.4770      0.00000
     17      10.6373      0.00000
     18      10.8510      0.00000

 k-point    22 :       0.5000    0.2368    0.7368
  band No.  band energies     occupation 
      1     -19.5388      2.00000
      2     -19.4716      2.00000
      3     -19.4429      2.00000
      4     -19.3711      2.00000
      5     -19.3427      2.00000
      6     -18.9026      2.00000
      7     -18.8429      2.00000
      8     -18.8164      2.00000
      9     -18.7901      2.00000
     10     -18.7328      2.00000
     11      -3.7787      2.00000
     12      -3.4742      2.00000
     13       1.2445      2.00000
     14       1.4679      2.00000
     15      10.1085      0.00000
     16      10.3420      0.00000
     17      10.8164      0.00000
     18      11.0726      0.00000

 k-point    23 :       0.5000    0.2237    0.7237
  band No.  band energies     occupation 
      1     -19.5386      2.00000
      2     -19.4715      2.00000
      3     -19.4432      2.00000
      4     -19.3711      2.00000
      5     -19.3429      2.00000
      6     -18.9024      2.00000
      7     -18.8427      2.00000
      8     -18.8166      2.00000
      9     -18.7899      2.00000
     10     -18.7330      2.00000
     11      -3.7809      2.00000
     12      -3.4770      2.00000
     13       1.2598      2.00000
     14       1.4815      2.00000
     15       9.7922      0.00000
     16      10.0418      0.00000
     17      11.1476      0.00000
     18      11.3978      0.00000

 k-point    24 :       0.5000    0.2105    0.7105
  band No.  band energies     occupation 
      1     -19.5383      2.00000
      2     -19.4713      2.00000
      3     -19.4436      2.00000
      4     -19.3710      2.00000
      5     -19.3432      2.00000
      6     -18.9020      2.00000
      7     -18.8425      2.00000
      8     -18.8169      2.00000
      9     -18.7896      2.00000
     10     -18.7334      2.00000
     11      -3.7844      2.00000
     12      -3.4817      2.00000
     13       1.2851      2.00000
     14       1.5040      2.00000
     15       9.4791      0.00000
     16       9.7364      0.00000
     17      11.4927      0.00000
     18      11.7377      0.00000

 k-point    25 :       0.5000    0.1974    0.6974
  band No.  band energies     occupation 
      1     -19.5379      2.00000
      2     -19.4711      2.00000
      3     -19.4442      2.00000
      4     -19.3709      2.00000
      5     -19.3437      2.00000
      6     -18.9015      2.00000
      7     -18.8422      2.00000
      8     -18.8173      2.00000
      9     -18.7892      2.00000
     10     -18.7340      2.00000
     11      -3.7892      2.00000
     12      -3.4880      2.00000
     13       1.3200      2.00000
     14       1.5350      2.00000
     15       9.1732      0.00000
     16       9.4364      0.00000
     17      11.8444      0.00000
     18      12.0847      0.00000

 k-point    26 :       0.5000    0.1842    0.6842
  band No.  band energies     occupation 
      1     -19.5374      2.00000
      2     -19.4708      2.00000
      3     -19.4449      2.00000
      4     -19.3708      2.00000
      5     -19.3442      2.00000
      6     -18.9009      2.00000
      7     -18.8419      2.00000
      8     -18.8179      2.00000
      9     -18.7886      2.00000
     10     -18.7347      2.00000
     11      -3.7951      2.00000
     12      -3.4957      2.00000
     13       1.3639      2.00000
     14       1.5740      2.00000
     15       8.8759      0.00000
     16       9.1448      0.00000
     17      12.2005      0.00000
     18      12.4363      0.00000

 k-point    27 :       0.5000    0.1711    0.6711
  band No.  band energies     occupation 
      1     -19.5368      2.00000
      2     -19.4705      2.00000
      3     -19.4458      2.00000
      4     -19.3706      2.00000
      5     -19.3448      2.00000
      6     -18.9001      2.00000
      7     -18.8414      2.00000
      8     -18.8185      2.00000
      9     -18.7880      2.00000
     10     -18.7355      2.00000
     11      -3.8020      2.00000
     12      -3.5047      2.00000
     13       1.4161      2.00000
     14       1.6203      2.00000
     15       8.5884      0.00000
     16       8.8628      0.00000
     17      12.5597      0.00000
     18      12.7910      0.00000

 k-point    28 :       0.5000    0.1579    0.6579
  band No.  band energies     occupation 
      1     -19.5361      2.00000
      2     -19.4701      2.00000
      3     -19.4468      2.00000
      4     -19.3705      2.00000
      5     -19.3455      2.00000
      6     -18.8993      2.00000
      7     -18.8409      2.00000
      8     -18.8192      2.00000
      9     -18.7872      2.00000
     10     -18.7364      2.00000
     11      -3.8095      2.00000
     12      -3.5146      2.00000
     13       1.4757      2.00000
     14       1.6731      2.00000
     15       8.3116      0.00000
     16       8.5916      0.00000
     17      12.9207      0.00000
     18      13.1470      0.00000

 k-point    29 :       0.5000    0.1447    0.6447
  band No.  band energies     occupation 
      1     -19.5353      2.00000
      2     -19.4697      2.00000
      3     -19.4478      2.00000
      4     -19.3702      2.00000
      5     -19.3463      2.00000
      6     -18.8984      2.00000
      7     -18.8404      2.00000
      8     -18.8200      2.00000
      9     -18.7863      2.00000
     10     -18.7374      2.00000
     11      -3.8176      2.00000
     12      -3.5251      2.00000
     13       1.5417      2.00000
     14       1.7313      2.00000
     15       8.0467      0.00000
     16       8.3325      0.00000
     17      13.2818      0.00000
     18      13.5025      0.00000

 k-point    30 :       0.5000    0.1316    0.6316
  band No.  band energies     occupation 
      1     -19.5345      2.00000
      2     -19.4693      2.00000
      3     -19.4490      2.00000
      4     -19.3700      2.00000
      5     -19.3471      2.00000
      6     -18.8974      2.00000
      7     -18.8398      2.00000
      8     -18.8209      2.00000
      9     -18.7853      2.00000
     10     -18.7386      2.00000
     11      -3.8260      2.00000
     12      -3.5359      2.00000
     13       1.6128      2.00000
     14       1.7939      2.00000
     15       7.7947      0.00000
     16       8.0866      0.00000
     17      13.6411      0.00000
     18      13.8552      0.00000

 k-point    31 :       0.5000    0.1184    0.6184
  band No.  band energies     occupation 
      1     -19.5337      2.00000
      2     -19.4689      2.00000
      3     -19.4501      2.00000
      4     -19.3698      2.00000
      5     -19.3479      2.00000
      6     -18.8964      2.00000
      7     -18.8391      2.00000
      8     -18.8218      2.00000
      9     -18.7842      2.00000
     10     -18.7398      2.00000
     11      -3.8344      2.00000
     12      -3.5467      2.00000
     13       1.6877      2.00000
     14       1.8593      2.00000
     15       7.5572      0.00000
     16       7.8553      0.00000
     17      13.9958      0.00000
     18      14.2022      0.00000

 k-point    32 :       0.5000    0.1053    0.6053
  band No.  band energies     occupation 
      1     -19.5328      2.00000
      2     -19.4685      2.00000
      3     -19.4512      2.00000
      4     -19.3695      2.00000
      5     -19.3487      2.00000
      6     -18.8954      2.00000
      7     -18.8384      2.00000
      8     -18.8228      2.00000
      9     -18.7831      2.00000
     10     -18.7411      2.00000
     11      -3.8426      2.00000
     12      -3.5573      2.00000
     13       1.7645      2.00000
     14       1.9260      2.00000
     15       7.3356      0.00000
     16       7.6401      0.00000
     17      14.3425      0.00000
     18      14.5394      0.00000

 k-point    33 :       0.5000    0.0921    0.5921
  band No.  band energies     occupation 
      1     -19.5320      2.00000
      2     -19.4682      2.00000
      3     -19.4523      2.00000
      4     -19.3693      2.00000
      5     -19.3496      2.00000
      6     -18.8944      2.00000
      7     -18.8378      2.00000
      8     -18.8239      2.00000
      9     -18.7819      2.00000
     10     -18.7424      2.00000
     11      -3.8504      2.00000
     12      -3.5674      2.00000
     13       1.8414      2.00000
     14       1.9921      2.00000
     15       7.1317      0.00000
     16       7.4428      0.00000
     17      14.6764      0.00000
     18      14.8616      0.00000

 k-point    34 :       0.5000    0.0789    0.5789
  band No.  band energies     occupation 
      1     -19.5312      2.00000
      2     -19.4678      2.00000
      3     -19.4533      2.00000
      4     -19.3691      2.00000
      5     -19.3503      2.00000
      6     -18.8935      2.00000
      7     -18.8370      2.00000
      8     -18.8250      2.00000
      9     -18.7807      2.00000
     10     -18.7437      2.00000
     11      -3.8576      2.00000
     12      -3.5767      2.00000
     13       1.9162      2.00000
     14       2.0557      2.00000
     15       6.9477      0.00000
     16       7.2653      0.00000
     17      14.9907      0.00000
     18      15.1620      0.00000

 k-point    35 :       0.5000    0.0658    0.5658
  band No.  band energies     occupation 
      1     -19.5304      2.00000
      2     -19.4676      2.00000
      3     -19.4541      2.00000
      4     -19.3689      2.00000
      5     -19.3511      2.00000
      6     -18.8927      2.00000
      7     -18.8363      2.00000
      8     -18.8260      2.00000
      9     -18.7796      2.00000
     10     -18.7450      2.00000
     11      -3.8640      2.00000
     12      -3.5849      2.00000
     13       1.9864      2.00000
     14       2.1146      2.00000
     15       6.7858      0.00000
     16       7.1096      0.00000
     17      15.2771      0.00000
     18      15.4327      0.00000

 k-point    36 :       0.5000    0.0526    0.5526
  band No.  band energies     occupation 
      1     -19.5298      2.00000
      2     -19.4674      2.00000
      3     -19.4549      2.00000
      4     -19.3688      2.00000
      5     -19.3517      2.00000
      6     -18.8919      2.00000
[...]
     11      -5.3867      2.00000
     12      -2.7138      2.00000
     13       2.9014      2.00000
     14       3.7792      2.00000
     15       7.3962      0.00000
     16       9.5359      0.00000
     17      10.3763      0.00000
     18      13.9857      0.00000

 k-point    87 :       0.5000    0.4211    0.5789
  band No.  band energies     occupation 
      1     -19.5204      2.00000
      2     -19.4721      2.00000
      3     -19.4622      2.00000
      4     -19.3615      2.00000
      5     -19.3606      2.00000
      6     -18.9004      2.00000
      7     -18.8211      2.00000
      8     -18.8174      2.00000
      9     -18.7730      2.00000
     10     -18.7681      2.00000
     11      -5.3190      2.00000
     12      -2.7049      2.00000
     13       2.5884      2.00000
     14       3.6597      2.00000
     15       7.6716      0.00000
     16       9.4933      0.00000
     17      10.6691      0.00000
     18      13.9346      0.00000

 k-point    88 :       0.5000    0.4079    0.5921
  band No.  band energies     occupation 
      1     -19.5229      2.00000
      2     -19.4722      2.00000
      3     -19.4599      2.00000
      4     -19.3612      2.00000
      5     -19.3597      2.00000
      6     -18.9013      2.00000
      7     -18.8233      2.00000
      8     -18.8183      2.00000
      9     -18.7723      2.00000
     10     -18.7654      2.00000
     11      -5.2393      2.00000
     12      -2.6994      2.00000
     13       2.2877      2.00000
     14       3.5223      2.00000
     15       7.9282      0.00000
     16       9.4668      0.00000
     17      11.0136      0.00000
     18      13.7886      0.00000

 k-point    89 :       0.5000    0.3947    0.6053
  band No.  band energies     occupation 
      1     -19.5253      2.00000
      2     -19.4723      2.00000
      3     -19.4575      2.00000
      4     -19.3610      2.00000
      5     -19.3587      2.00000
      6     -18.9022      2.00000
      7     -18.8256      2.00000
      8     -18.8191      2.00000
      9     -18.7718      2.00000
     10     -18.7625      2.00000
     11      -5.1479      2.00000
     12      -2.7001      2.00000
     13       2.0065      2.00000
     14       3.3691      2.00000
     15       8.1660      0.00000
     16       9.4602      0.00000
     17      11.3979      0.00000
     18      13.5710      0.00000

 k-point    90 :       0.5000    0.3816    0.6184
  band No.  band energies     occupation 
      1     -19.5275      2.00000
      2     -19.4723      2.00000
      3     -19.4552      2.00000
      4     -19.3609      2.00000
      5     -19.3575      2.00000
      6     -18.9031      2.00000
      7     -18.8278      2.00000
      8     -18.8196      2.00000
      9     -18.7716      2.00000
     10     -18.7596      2.00000
     11      -5.0450      2.00000
     12      -2.7100      2.00000
     13       1.7508      2.00000
     14       3.2026      2.00000
     15       8.3883      0.00000
     16       9.4758      0.00000
     17      11.7974      0.00000
     18      13.3104      0.00000

 k-point    91 :       0.5000    0.3684    0.6316
  band No.  band energies     occupation 
      1     -19.5296      2.00000
      2     -19.4724      2.00000
      3     -19.4530      2.00000
      4     -19.3610      2.00000
      5     -19.3563      2.00000
      6     -18.9039      2.00000
      7     -18.8300      2.00000
      8     -18.8200      2.00000
      9     -18.7719      2.00000
     10     -18.7566      2.00000
     11      -4.9309      2.00000
     12      -2.7328      2.00000
     13       1.5261      2.00000
     14       3.0258      2.00000
     15       8.6000      0.00000
     16       9.5146      0.00000
     17      12.1535      0.00000
     18      13.0286      0.00000

 k-point    92 :       0.5000    0.3553    0.6447
  band No.  band energies     occupation 
      1     -19.5315      2.00000
      2     -19.4724      2.00000
      3     -19.4509      2.00000
      4     -19.3613      2.00000
      5     -19.3549      2.00000
      6     -18.9046      2.00000
      7     -18.8320      2.00000
      8     -18.8201      2.00000
      9     -18.7725      2.00000
     10     -18.7536      2.00000
     11      -4.8060      2.00000
     12      -2.7716      2.00000
     13       1.3371      2.00000
     14       2.8417      2.00000
     15       8.8058      0.00000
     16       9.5767      0.00000
     17      12.3302      0.00000
     18      12.7403      0.00000

 k-point    93 :       0.5000    0.3421    0.6579
  band No.  band energies     occupation 
      1     -19.5332      2.00000
      2     -19.4725      2.00000
      3     -19.4491      2.00000
      4     -19.3620      2.00000
      5     -19.3536      2.00000
      6     -18.9051      2.00000
      7     -18.8340      2.00000
      8     -18.8201      2.00000
      9     -18.7735      2.00000
     10     -18.7506      2.00000
     11      -4.6708      2.00000
     12      -2.8295      2.00000
     13       1.1875      2.00000
     14       2.6532      2.00000
     15       9.0097      0.00000
     16       9.6617      0.00000
     17      12.2400      0.00000
     18      12.4509      0.00000

 k-point    94 :       0.5000    0.3289    0.6711
  band No.  band energies     occupation 
      1     -19.5347      2.00000
      2     -19.4725      2.00000
      3     -19.4474      2.00000
      4     -19.3628      2.00000
      5     -19.3521      2.00000
      6     -18.9054      2.00000
      7     -18.8358      2.00000
      8     -18.8199      2.00000
      9     -18.7749      2.00000
     10     -18.7477      2.00000
     11      -4.5259      2.00000
     12      -2.9079      2.00000
     13       1.0796      2.00000
     14       2.4634      2.00000
     15       9.2149      0.00000
     16       9.7689      0.00000
     17      12.0095      0.00000
     18      12.1586      0.00000

 k-point    95 :       0.5000    0.3158    0.6842
  band No.  band energies     occupation 
      1     -19.5359      2.00000
      2     -19.4724      2.00000
      3     -19.4460      2.00000
      4     -19.3638      2.00000
      5     -19.3506      2.00000
      6     -18.9055      2.00000
      7     -18.8374      2.00000
      8     -18.8196      2.00000
      9     -18.7767      2.00000
     10     -18.7449      2.00000
     11      -4.3724      2.00000
     12      -3.0073      2.00000
     13       1.0141      2.00000
     14       2.2753      2.00000
     15       9.4238      0.00000
     16       9.8972      0.00000
     17      11.7400      0.00000
     18      11.8647      0.00000

 k-point    96 :       0.5000    0.3026    0.6974
  band No.  band energies     occupation 
      1     -19.5369      2.00000
      2     -19.4724      2.00000
      3     -19.4448      2.00000
      4     -19.3651      2.00000
      5     -19.3490      2.00000
      6     -18.9054      2.00000
      7     -18.8389      2.00000
      8     -18.8191      2.00000
      9     -18.7788      2.00000
     10     -18.7421      2.00000
     11      -4.2113      2.00000
     12      -3.1260      2.00000
     13       0.9899      2.00000
     14       2.0918      2.00000
     15       9.6378      0.00000
     16      10.0453      0.00000
     17      11.4642      0.00000
     18      11.5745      0.00000

 k-point    97 :       0.5000    0.2895    0.7105
  band No.  band energies     occupation 
      1     -19.5377      2.00000
      2     -19.4722      2.00000
      3     -19.4438      2.00000
      4     -19.3665      2.00000
      5     -19.3474      2.00000
      6     -18.9050      2.00000
      7     -18.8401      2.00000
      8     -18.8186      2.00000
      9     -18.7813      2.00000
     10     -18.7395      2.00000
     11      -4.0446      2.00000
     12      -3.2607      2.00000
     13       1.0042      2.00000
     14       1.9158      2.00000
     15       9.8579      0.00000
     16      10.2116      0.00000
     17      11.1931      0.00000
     18      11.2925      0.00000

 k-point    98 :       0.5000    0.2763    0.7237
  band No.  band energies     occupation 
      1     -19.5383      2.00000
      2     -19.4721      2.00000
      3     -19.4432      2.00000
      4     -19.3679      2.00000
      5     -19.3457      2.00000
      6     -18.9045      2.00000
      7     -18.8412      2.00000
      8     -18.8179      2.00000
      9     -18.7840      2.00000
     10     -18.7370      2.00000
     11      -3.8765      2.00000
     12      -3.4050      2.00000
     13       1.0534      2.00000
     14       1.7503      2.00000
     15      10.0831      0.00000
     16      10.3928      0.00000
     17      10.9325      0.00000
     18      11.0234      0.00000

 k-point    99 :       0.5000    0.2632    0.7368
  band No.  band energies     occupation 
      1     -19.5387      2.00000
      2     -19.4719      2.00000
      3     -19.4429      2.00000
      4     -19.3695      2.00000
      5     -19.3442      2.00000
      6     -18.9037      2.00000
      7     -18.8422      2.00000
      8     -18.8172      2.00000
      9     -18.7870      2.00000
     10     -18.7348      2.00000
     11      -3.7322      2.00000
     12      -3.5317      2.00000
     13       1.1332      2.00000
     14       1.5983      2.00000
     15      10.3033      0.00000
     16      10.5657      0.00000
     17      10.6949      0.00000
     18      10.7912      0.00000

 k-point   100 :       0.5000    0.2500    0.7500
  band No.  band energies     occupation 
      1     -19.5389      2.00000
      2     -19.4716      2.00000
      3     -19.4428      2.00000
      4     -19.3712      2.00000
      5     -19.3427      2.00000
      6     -18.9027      2.00000
      7     -18.8429      2.00000
      8     -18.8164      2.00000
      9     -18.7902      2.00000
     10     -18.7327      2.00000
     11      -3.7780      2.00000
     12      -3.4732      2.00000
     13       1.2394      2.00000
     14       1.4633      2.00000
     15      10.3609      0.00000
     16      10.4770      0.00000
     17      10.6373      0.00000
     18      10.8510      0.00000


--------------------------------------------------------------------------------------------------------


 soft charge-density along one line, spin component           1
         0         1         2         3         4         5         6         7         8         9
 total charge-density along one line

 pseudopotential strength for first ion, spin component:           1
-21.956  -0.020   0.025  -0.020  -0.000   4.233   0.008  -0.009
 -0.020 -21.956  -0.012  -0.020   0.021   0.008   4.233   0.005
  0.025  -0.012 -21.949  -0.012  -0.000  -0.009   0.005   4.231
 -0.020  -0.020  -0.012 -21.956  -0.021   0.008   0.008   0.005
 -0.000   0.021  -0.000  -0.021 -21.949   0.000  -0.008   0.000
  4.233   0.008  -0.009   0.008   0.000   2.009  -0.001   0.001
  0.008   4.233   0.005   0.008  -0.008  -0.001   2.009  -0.001
 -0.009   0.005   4.231   0.005   0.000   0.001  -0.001   2.008
  0.008   0.008   0.005   4.233   0.008  -0.001  -0.001  -0.001
  0.000  -0.008   0.000   0.008   4.231   0.000   0.001  -0.000
 -0.004  -0.004  -0.000  -0.004   0.000   0.011   0.011   0.000
 -0.005  -0.005  -0.000  -0.005   0.000   0.013   0.013   0.000
 -0.000  -0.000  -0.000  -0.004  -0.000   0.000   0.000   0.000
 -0.004  -0.000   0.000  -0.000   0.000   0.007   0.000  -0.000
 -0.000  -0.004  -0.000  -0.000   0.000   0.000   0.007   0.000
 -0.000  -0.000  -0.000  -0.007  -0.000   0.000   0.000   0.000
 -0.007  -0.000   0.000  -0.000   0.000   0.013   0.000  -0.000
 -0.000  -0.007  -0.000  -0.000   0.000   0.000   0.013   0.000
 total augmentation occupancy for first ion, spin component:           1
  2.000   0.000   0.000   0.000   0.000   0.000   0.000   0.000   0.000   0.000   0.000   0.000   0.000   0.000   0.000   0.000
  0.000   2.000   0.000   0.000   0.000   0.000   0.000   0.000   0.000   0.000   0.000   0.000   0.000   0.000   0.000   0.000
  0.000   0.000   2.000   0.000   0.000   0.000   0.000   0.000   0.000   0.000   0.000   0.000   0.000   0.000   0.000   0.000
  0.000   0.000   0.000   2.000   0.000   0.000   0.000   0.000   0.000   0.000   0.000   0.000   0.000   0.000   0.000   0.000
  0.000   0.000   0.000   0.000   2.000   0.000   0.000   0.000   0.000   0.000   0.000   0.000   0.000   0.000   0.000   0.000
  0.000   0.000   0.000   0.000   0.000   0.000   0.000   0.000   0.000   0.000   0.000   0.000   0.000   0.000   0.000   0.000
  0.000   0.000   0.000   0.000   0.000   0.000   0.000   0.000   0.000   0.000   0.000   0.000   0.000   0.000   0.000   0.000
  0.000   0.000   0.000   0.000   0.000   0.000   0.000   0.000   0.000   0.000   0.000   0.000   0.000   0.000   0.000   0.000
  0.000   0.000   0.000   0.000   0.000   0.000   0.000   0.000   0.000   0.000   0.000   0.000   0.000   0.000   0.000   0.000
  0.000   0.000   0.000   0.000   0.000   0.000   0.000   0.000   0.000   0.000   0.000   0.000   0.000   0.000   0.000   0.000
  0.000   0.000   0.000   0.000   0.000   0.000   0.000   0.000   0.000   0.000   2.000   0.000   0.000   0.000   0.000   0.000
  0.000   0.000   0.000   0.000   0.000   0.000   0.000   0.000   0.000   0.000   0.000   0.000   0.000   0.000   0.000   0.000
  0.000   0.000   0.000   0.000   0.000   0.000   0.000   0.000   0.000   0.000   0.000   0.000   0.667   0.000   0.000   0.000
  0.000   0.000   0.000   0.000   0.000   0.000   0.000   0.000   0.000   0.000   0.000   0.000   0.000   0.667   0.000   0.000
  0.000   0.000   0.000   0.000   0.000   0.000   0.000   0.000   0.000   0.000   0.000   0.000   0.000   0.000   0.667   0.000
  0.000   0.000   0.000   0.000   0.000   0.000   0.000   0.000   0.000   0.000   0.000   0.000   0.000   0.000   0.000   0.000
  0.000   0.000   0.000   0.000   0.000   0.000   0.000   0.000   0.000   0.000   0.000   0.000   0.000   0.000   0.000   0.000
  0.000   0.000   0.000   0.000   0.000   0.000   0.000   0.000   0.000   0.000   0.000   0.000   0.000   0.000   0.000   0.000


------------------------ aborting loop because EDIFF is reached ----------------------------------------





 total charge

# of ion       s       p       d       tot
------------------------------------------
    1        1.114   1.457  10.055  12.627
    2        1.114   1.457  10.055  12.627
--------------------------------------------------
tot          2.228   2.915  20.110  25.253

    CHARGE:  cpu time      0.2416: real time      0.2416
    FORLOC:  cpu time      0.0012: real time      0.0012
    FORNL :  cpu time      0.5623: real time      0.5623
    STRESS:  cpu time      1.8225: real time      1.8236
    FORCOR:  cpu time      0.0471: real time      0.0471
    FORHAR:  cpu time      0.0130: real time      0.0130
    OFIELD:  cpu time      0.0003: real time      0.0003

  FORCE on cell =-STRESS in cart. coord.  units (eV):
  Direction    XX          YY          ZZ          XY          YZ          ZX
  --------------------------------------------------------------------------------------
  Alpha Z   143.31628   143.31628   143.31628
  Ewald    -926.71028  -926.71028  -926.71028     0.00000     0.00000    -0.00000
  Hartree   489.28048   489.28048   489.28048     0.00000     0.00000     0.00000
  E(xc)    -165.62722  -165.62722  -165.62722    -0.08621    -0.08621    -0.08621
  Local       0.70194     0.70194     0.70194     0.00021     0.00021     0.00021
  n-local    66.08047    61.05352    63.97842    -1.17191    -0.52817    -0.83973
  augment   247.66358   247.66358   247.66358    -1.32395    -1.32395    -1.32395
  Kinetic   151.32160   148.48208   152.56243    -3.20287    -2.12467    -2.58669
  Fock        0.00000     0.00000     0.00000     0.00000     0.00000     0.00000
  -------------------------------------------------------------------------------------
  Total       3.11762     3.11762     3.11762     0.00000     0.00000    -0.00000
  in kB     122.16899   122.16899   122.16899     0.00000     0.00000    -0.00000
  external pressure =      122.17 kB  Pullay stress =        0.00 kB


 VOLUME and BASIS-vectors are now :
 -----------------------------------------------------------------------------
  energy-cutoff  :      450.00
  volume of cell :       40.89
      direct lattice vectors                 reciprocal lattice vectors
     0.000000000  2.734310366  2.734310366    -0.182861465  0.182861465  0.182861465
     2.734310366  0.000000000  2.734310366     0.182861465 -0.182861465  0.182861465
     2.734310366  2.734310366  0.000000000     0.182861465  0.182861465 -0.182861465

  length of vectors
     3.866898804  3.866898804  3.866898804     0.316725349  0.316725349  0.316725349


 FORCES acting on ions
    electron-ion (+dipol)            ewald-force                    non-local-force                 convergence-correction
 -----------------------------------------------------------------------------------------------
   -.511E-06 -.511E-06 -.426E-06   -.103E-12 0.127E-12 -.116E-12   -.830E-16 -.823E-16 -.696E-16   -.313E-01 -.313E-01 -.313E-01
   0.511E-06 0.511E-06 0.426E-06   0.103E-12 -.131E-12 0.112E-12   0.783E-16 0.991E-16 0.714E-16   0.704E+01 0.704E+01 0.704E+01
 -----------------------------------------------------------------------------------------------
   0.479E-11 0.371E-11 0.446E-11   0.512E-15 -.462E-14 -.426E-14   -.475E-17 0.168E-16 0.188E-17   0.701E+01 0.701E+01 0.701E+01


 POSITION                                       TOTAL-FORCE (eV/Angst)
 -----------------------------------------------------------------------------------
      2.73431      2.73431      2.73431        -0.000000     -0.000000     -0.000000
      4.10147      4.10147      4.10147         0.000000      0.000000      0.000000
 -----------------------------------------------------------------------------------
    total drift:                                7.011116      7.011116      7.011092


--------------------------------------------------------------------------------------------------------



  FREE ENERGIE OF THE ION-ELECTRON SYSTEM (eV)
  ---------------------------------------------------
  free  energy   TOTEN  =        -8.14745409 eV

  energy  without entropy=       -8.14745409  energy(sigma->0) =       -8.14745409



--------------------------------------------------------------------------------------------------------


    POTLOK:  cpu time      0.1202: real time      0.1202


--------------------------------------------------------------------------------------------------------


 writing wavefunctions
     LOOP+:  cpu time     14.7735: real time     14.7760
    4ORBIT:  cpu time      0.0000: real time      0.0000



 total charge

# of ion       s       p       d       tot
------------------------------------------
    1        1.114   1.457  10.055  12.627
    2        1.114   1.457  10.055  12.627
--------------------------------------------------
tot          2.228   2.915  20.110  25.253


 total amount of memory used by VASP MPI-rank0    75002. kBytes
=======================================================================

   base      :      30000. kBytes
   nonl-proj :      13075. kBytes
   fftplans  :      13127. kBytes
   grid      :       5205. kBytes
   one-center:         31. kBytes
   wavefun   :      13564. kBytes

  
  
 General timing and accounting informations for this job:
 ========================================================
  
                  Total CPU time used (sec):       16.127
                            User time (sec):       14.881
                          System time (sec):        1.245
                         Elapsed time (sec):       16.389
  
                   Maximum memory used (kb):      142628.
                   Average memory used (kb):          N/A
  
                          Minor page faults:       210321
                          Major page faults:            0
                 Voluntary context switches:         1074
