 vasp.6.3.2 27Jun22 (build Nov 28 2025 11:56:12) complex                         
 executed on             LinuxGNU date 2026.01.20  15:06:26
 running    2 mpi-ranks, with    1 threads/rank
 distrk:  each k-point on    2 cores,    1 groups
 distr:  one band on NCORE=   1 cores,    2 groups


--------------------------------------------------------------------------------------------------------


 INCAR:
   ISTART = 1            (Read existing wavefunction, if there)
   ISPIN = 1            (Non-Spin polarised DFT)
   ICHARG = 11           (Non-self-consistent: GGA/LDA band structures)
   LREAL = .FALSE.       (Projection operators: automatic)
   ENCUT = 450          (Cut-off energy for plane wave basis set, in eV)
   PREC = Accurate     (Precision level: Normal or Accurate, set Accurate when perform structure lattice relaxation calculation)
   LWAVE = .TRUE.        (Write WAVECAR or not)
   LCHARG = .TRUE.        (Write CHGCAR or not)
   ADDGRID = .TRUE.        (Increase grid, helps GGA convergence)
   ISMEAR = 0            (gaussian smearing method)
   SIGMA = 0.05         (please check the width of the smearing)
   LORBIT = 11           (PAW radii for projected DOS)
   NEDOS = 2001         (DOSCAR points)
   NELM = 60           (Max electronic SCF steps)
   EDIFF = 1E-06        (SCF energy convergence, in eV)

 POTCAR:    PAW_PBE Ge_d 03Jul2007                
 POTCAR:    PAW_PBE Ge_d 03Jul2007                
   VRHFIN =Ge: 3d4s4p                                                                               
   LEXCH  = PE                                                                                      
   EATOM  =  2596.2402 eV,  190.8183 Ry                                                             
                                                                                                    
   TITEL  = PAW_PBE Ge_d 03Jul2007                                                                  
   LULTRA =        F    use ultrasoft PP ?                                                          
   IUNSCR =        1    unscreen: 0-lin 1-nonlin 2-no                                               
   RPACOR =    2.000    partial core radius                                                         
   POMASS =   72.610; ZVAL   =   14.000    mass and valenz                                          
   RCORE  =    2.300    outmost cutoff radius                                                       
   RWIGS  =    2.300; RWIGS  =    1.217    wigner-seitz radius (au A)                               
   ENMAX  =  310.294; ENMIN  =  232.720 eV                                                          
   ICORE  =        3    local potential                                                             
   LCOR   =        T    correct aug charges                                                         
   LPAW   =        T    paw PP                                                                      
   EAUG   =  531.356                                                                                
   DEXC   =    0.000                                                                                
   RMAX   =    2.342    core radius for proj-oper                                                   
   RAUG   =    1.300    factor for augmentation sphere                                              
   RDEP   =    2.318    radius for radial grids                                                     
   RDEPT  =    1.783    core radius for aug-charge                                                  
                                                                                                    
   Atomic configuration                                                                             
    9 entries                                                                                       
     n  l   j            E        occ.                                                              
     1  0  0.50    -10959.8463   2.0000                                                             
     2  0  0.50     -1371.6056   2.0000                                                             
     2  1  1.50     -1198.4791   6.0000                                                             
     3  0  0.50      -168.4733   2.0000                                                             
     3  1  1.50      -115.6019   6.0000                                                             
     3  2  2.50       -29.3106  10.0000                                                             
     4  0  0.50       -11.7309   2.0000                                                             
     4  1  0.50        -3.8952   2.0000                                                             
     4  3  2.50        -4.0817   0.0000                                                             
   Description                                                                                      
     l       E           TYP  RCUT    TYP  RCUT                                                     
     2    -29.3105938     23  2.200                                                                 
     2    -13.6058260     23  2.200                                                                 
     0    -11.7309493     23  2.300                                                                 
     0     -7.4578696     23  2.300                                                                 
     1     -3.8952261     23  2.300                                                                 
     1      6.1178114     23  2.300                                                                 
     3     -1.3605826     23  2.300                                                                 
  local pseudopotential read in
  partial core-charges read in
  partial kinetic energy density read in
  atomic valenz-charges read in
  non local Contribution for L=           2  read in
    real space projection operators read in
  non local Contribution for L=           2  read in
    real space projection operators read in
  non local Contribution for L=           0  read in
    real space projection operators read in
  non local Contribution for L=           0  read in
    real space projection operators read in
  non local Contribution for L=           1  read in
    real space projection operators read in
  non local Contribution for L=           1  read in
    real space projection operators read in
    PAW grid and wavefunctions read in

   number of l-projection  operators is LMAX  =           6
   number of lm-projection operators is LMMAX =          18

  PAW_PBE Ge_d 03Jul2007                :
 energy of atom  1       EATOM=-2596.2402
 kinetic energy error for atom=    0.0077 (will be added to EATOM!!)


 POSCAR: Primitive Cell
  positions in direct lattice
  No initial velocities read in
 exchange correlation table for  LEXCH =        8
   RHO(1)=    0.500       N(1)  =     2000
   RHO(2)=  100.500       N(2)  =     4000



--------------------------------------------------------------------------------------------------------


 ion  position               nearest neighbor table
   1  0.500  0.500  0.500-   2 2.49   2 2.49   2 2.49   2 2.49
   2  0.750  0.750  0.750-   1 2.49   1 2.49   1 2.49   1 2.49

  LATTYP: Found a face centered cubic cell.
 ALAT       =     5.7450141918
  
  Lattice vectors:
  
 A1 = (   0.0000000000,   2.8725070959,   2.8725070959)
 A2 = (   2.8725070959,   0.0000000000,   2.8725070959)
 A3 = (   2.8725070959,   2.8725070959,   0.0000000000)


Analysis of symmetry for initial positions (statically):
=====================================================================
 Subroutine PRICEL returns:
 Original cell was already a primitive cell.
 

 Routine SETGRP: Setting up the symmetry group for a 
 face centered cubic supercell.


 Subroutine GETGRP returns: Found 48 space group operations
 (whereof 24 operations were pure point group operations)
 out of a pool of 48 trial point group operations.


The static configuration has the point symmetry T_d .
 The point group associated with its full space group is O_h .


Analysis of symmetry for dynamics (positions and initial velocities):
=====================================================================
 Subroutine PRICEL returns:
 Original cell was already a primitive cell.
 

 Routine SETGRP: Setting up the symmetry group for a 
 face centered cubic supercell.


 Subroutine GETGRP returns: Found 48 space group operations
 (whereof 24 operations were pure point group operations)
 out of a pool of 48 trial point group operations.


The dynamic configuration has the point symmetry T_d .
 The point group associated with its full space group is O_h .


 Subroutine INISYM returns: Found 48 space group operations
 (whereof 24 operations are pure point group operations),
 and found     1 'primitive' translations


----------------------------------------------------------------------------------------

                                     Primitive cell                                     

  volume of cell :      47.4038

  direct lattice vectors                    reciprocal lattice vectors
     0.000000000  2.872507096  2.872507096    -0.174063974  0.174063974  0.174063974
     2.872507096  0.000000000  2.872507096     0.174063974 -0.174063974  0.174063974
     2.872507096  2.872507096  0.000000000     0.174063974  0.174063974 -0.174063974

  length of vectors
     4.062338493  4.062338493  4.062338493     0.301487646  0.301487646  0.301487646

  position of ions in fractional coordinates (direct lattice)
     0.500000000  0.500000000  0.500000000
     0.750000000  0.750000000  0.750000000

  ion indices of the primitive-cell ions
   primitive index   ion index
                 1           1
                 2           2

----------------------------------------------------------------------------------------



 KPOINTS: K-Path Generated by VASPKIT.            

Interpolating k-points between supplied coordinates.

 Line segments in fractional coordinates (reciprocal lattice):
    0.000000  0.000000  0.000000  ...  0.500000  0.000000  0.500000
    0.500000  0.000000  0.500000  ...  0.625000  0.250000  0.625000
    0.375000  0.375000  0.750000  ...  0.000000  0.000000  0.000000
    0.000000  0.000000  0.000000  ...  0.500000  0.500000  0.500000
    0.500000  0.500000  0.500000  ...  0.500000  0.250000  0.750000
    0.500000  0.250000  0.750000  ...  0.500000  0.000000  0.500000

 Generated    20 points on each line segment, for a total of    120 k-points:

 Following reciprocal coordinates:
            Coordinates               Weight
  0.000000  0.000000  0.000000      0.008333
  0.026316  0.000000  0.026316      0.008333
  0.052632  0.000000  0.052632      0.008333
  0.078947  0.000000  0.078947      0.008333
  0.105263  0.000000  0.105263      0.008333
  0.131579  0.000000  0.131579      0.008333
  0.157895  0.000000  0.157895      0.008333
  0.184211  0.000000  0.184211      0.008333
  0.210526  0.000000  0.210526      0.008333
  0.236842  0.000000  0.236842      0.008333
  0.263158  0.000000  0.263158      0.008333
  0.289474  0.000000  0.289474      0.008333
  0.315789  0.000000  0.315789      0.008333
  0.342105  0.000000  0.342105      0.008333
  0.368421  0.000000  0.368421      0.008333
  0.394737  0.000000  0.394737      0.008333
  0.421053  0.000000  0.421053      0.008333
  0.447368  0.000000  0.447368      0.008333
  0.473684  0.000000  0.473684      0.008333
  0.500000  0.000000  0.500000      0.008333
  0.500000  0.000000  0.500000      0.008333
  0.506579  0.013158  0.506579      0.008333
  0.513158  0.026316  0.513158      0.008333
  0.519737  0.039474  0.519737      0.008333
  0.526316  0.052632  0.526316      0.008333
  0.532895  0.065789  0.532895      0.008333
  0.539474  0.078947  0.539474      0.008333
  0.546053  0.092105  0.546053      0.008333
  0.552632  0.105263  0.552632      0.008333
  0.559211  0.118421  0.559211      0.008333
  0.565789  0.131579  0.565789      0.008333
  0.572368  0.144737  0.572368      0.008333
  0.578947  0.157895  0.578947      0.008333
  0.585526  0.171053  0.585526      0.008333
  0.592105  0.184211  0.592105      0.008333
  0.598684  0.197368  0.598684      0.008333
  0.605263  0.210526  0.605263      0.008333
  0.611842  0.223684  0.611842      0.008333
  0.618421  0.236842  0.618421      0.008333
  0.625000  0.250000  0.625000      0.008333
  0.375000  0.375000  0.750000      0.008333
  0.355263  0.355263  0.710526      0.008333
  0.335526  0.335526  0.671053      0.008333
  0.315789  0.315789  0.631579      0.008333
  0.296053  0.296053  0.592105      0.008333
  0.276316  0.276316  0.552632      0.008333
  0.256579  0.256579  0.513158      0.008333
  0.236842  0.236842  0.473684      0.008333
  0.217105  0.217105  0.434211      0.008333
  0.197368  0.197368  0.394737      0.008333
  0.177632  0.177632  0.355263      0.008333
  0.157895  0.157895  0.315789      0.008333
  0.138158  0.138158  0.276316      0.008333
  0.118421  0.118421  0.236842      0.008333
  0.098684  0.098684  0.197368      0.008333
  0.078947  0.078947  0.157895      0.008333
  0.059211  0.059211  0.118421      0.008333
  0.039474  0.039474  0.078947      0.008333
  0.019737  0.019737  0.039474      0.008333
  0.000000  0.000000  0.000000      0.008333
  0.000000  0.000000  0.000000      0.008333
  0.026316  0.026316  0.026316      0.008333
  0.052632  0.052632  0.052632      0.008333
  0.078947  0.078947  0.078947      0.008333
  0.105263  0.105263  0.105263      0.008333
  0.131579  0.131579  0.131579      0.008333
  0.157895  0.157895  0.157895      0.008333
  0.184211  0.184211  0.184211      0.008333
  0.210526  0.210526  0.210526      0.008333
  0.236842  0.236842  0.236842      0.008333
  0.263158  0.263158  0.263158      0.008333
  0.289474  0.289474  0.289474      0.008333
  0.315789  0.315789  0.315789      0.008333
  0.342105  0.342105  0.342105      0.008333
  0.368421  0.368421  0.368421      0.008333
  0.394737  0.394737  0.394737      0.008333
  0.421053  0.421053  0.421053      0.008333
  0.447368  0.447368  0.447368      0.008333
  0.473684  0.473684  0.473684      0.008333
  0.500000  0.500000  0.500000      0.008333
  0.500000  0.500000  0.500000      0.008333
  0.500000  0.486842  0.513158      0.008333
  0.500000  0.473684  0.526316      0.008333
  0.500000  0.460526  0.539474      0.008333
  0.500000  0.447368  0.552632      0.008333
  0.500000  0.434211  0.565789      0.008333
  0.500000  0.421053  0.578947      0.008333
  0.500000  0.407895  0.592105      0.008333
  0.500000  0.394737  0.605263      0.008333
  0.500000  0.381579  0.618421      0.008333
  0.500000  0.368421  0.631579      0.008333
  0.500000  0.355263  0.644737      0.008333
  0.500000  0.342105  0.657895      0.008333
  0.500000  0.328947  0.671053      0.008333
  0.500000  0.315789  0.684211      0.008333
  0.500000  0.302632  0.697368      0.008333
  0.500000  0.289474  0.710526      0.008333
  0.500000  0.276316  0.723684      0.008333
  0.500000  0.263158  0.736842      0.008333
  0.500000  0.250000  0.750000      0.008333
  0.500000  0.250000  0.750000      0.008333
  0.500000  0.236842  0.736842      0.008333
  0.500000  0.223684  0.723684      0.008333
  0.500000  0.210526  0.710526      0.008333
  0.500000  0.197368  0.697368      0.008333
  0.500000  0.184211  0.684211      0.008333
  0.500000  0.171053  0.671053      0.008333
  0.500000  0.157895  0.657895      0.008333
  0.500000  0.144737  0.644737      0.008333
  0.500000  0.131579  0.631579      0.008333
  0.500000  0.118421  0.618421      0.008333
  0.500000  0.105263  0.605263      0.008333
  0.500000  0.092105  0.592105      0.008333
  0.500000  0.078947  0.578947      0.008333
  0.500000  0.065789  0.565789      0.008333
  0.500000  0.052632  0.552632      0.008333
  0.500000  0.039474  0.539474      0.008333
  0.500000  0.026316  0.526316      0.008333
  0.500000  0.013158  0.513158      0.008333
  0.500000  0.000000  0.500000      0.008333

 Following cartesian coordinates:
            Coordinates               Weight
  0.000000  0.000000  0.000000      0.008333
 -0.000000  0.009161  0.000000      0.008333
 -0.000000  0.018323  0.000000      0.008333
  0.000000  0.027484 -0.000000      0.008333
 -0.000000  0.036645  0.000000      0.008333
  0.000000  0.045806 -0.000000      0.008333
  0.000000  0.054968 -0.000000      0.008333
 -0.000000  0.064129  0.000000      0.008333
 -0.000000  0.073290  0.000000      0.008333
  0.000000  0.082451 -0.000000      0.008333
  0.000000  0.091613 -0.000000      0.008333
  0.000000  0.100774 -0.000000      0.008333
  0.000000  0.109935 -0.000000      0.008333
 -0.000000  0.119096  0.000000      0.008333
 -0.000000  0.128258  0.000000      0.008333
 -0.000000  0.137419  0.000000      0.008333
 -0.000000  0.146580  0.000000      0.008333
  0.000000  0.155741 -0.000000      0.008333
  0.000000  0.164903 -0.000000      0.008333
  0.000000  0.174064  0.000000      0.008333
  0.000000  0.174064  0.000000      0.008333
  0.002290  0.174064  0.002290      0.008333
  0.004581  0.174064  0.004581      0.008333
  0.006871  0.174064  0.006871      0.008333
  0.009161  0.174064  0.009161      0.008333
  0.011452  0.174064  0.011452      0.008333
  0.013742  0.174064  0.013742      0.008333
  0.016032  0.174064  0.016032      0.008333
  0.018323  0.174064  0.018323      0.008333
  0.020613  0.174064  0.020613      0.008333
  0.022903  0.174064  0.022903      0.008333
  0.025193  0.174064  0.025193      0.008333
  0.027484  0.174064  0.027484      0.008333
  0.029774  0.174064  0.029774      0.008333
  0.032064  0.174064  0.032064      0.008333
  0.034355  0.174064  0.034355      0.008333
  0.036645  0.174064  0.036645      0.008333
  0.038935  0.174064  0.038935      0.008333
  0.041226  0.174064  0.041226      0.008333
  0.043516  0.174064  0.043516      0.008333
  0.130548  0.130548  0.000000      0.008333
  0.123677  0.123677 -0.000000      0.008333
  0.116806  0.116806 -0.000000      0.008333
  0.109935  0.109935 -0.000000      0.008333
  0.103064  0.103064 -0.000000      0.008333
  0.096193  0.096193  0.000000      0.008333
  0.089322  0.089322  0.000000      0.008333
  0.082451  0.082451  0.000000      0.008333
  0.075580  0.075580  0.000000      0.008333
  0.068709  0.068709  0.000000      0.008333
  0.061839  0.061839 -0.000000      0.008333
  0.054968  0.054968  0.000000      0.008333
  0.048097  0.048097  0.000000      0.008333
  0.041226  0.041226  0.000000      0.008333
  0.034355  0.034355 -0.000000      0.008333
  0.027484  0.027484 -0.000000      0.008333
  0.020613  0.020613 -0.000000      0.008333
  0.013742  0.013742  0.000000      0.008333
  0.006871  0.006871  0.000000      0.008333
  0.000000  0.000000  0.000000      0.008333
  0.000000  0.000000  0.000000      0.008333
  0.004581  0.004581  0.004581      0.008333
  0.009161  0.009161  0.009161      0.008333
  0.013742  0.013742  0.013742      0.008333
  0.018323  0.018323  0.018323      0.008333
  0.022903  0.022903  0.022903      0.008333
  0.027484  0.027484  0.027484      0.008333
  0.032064  0.032064  0.032064      0.008333
  0.036645  0.036645  0.036645      0.008333
  0.041226  0.041226  0.041226      0.008333
  0.045806  0.045806  0.045806      0.008333
  0.050387  0.050387  0.050387      0.008333
  0.054968  0.054968  0.054968      0.008333
  0.059548  0.059548  0.059548      0.008333
  0.064129  0.064129  0.064129      0.008333
  0.068709  0.068709  0.068709      0.008333
  0.073290  0.073290  0.073290      0.008333
  0.077871  0.077871  0.077871      0.008333
  0.082451  0.082451  0.082451      0.008333
  0.087032  0.087032  0.087032      0.008333
  0.087032  0.087032  0.087032      0.008333
  0.087032  0.091613  0.082451      0.008333
  0.087032  0.096193  0.077871      0.008333
  0.087032  0.100774  0.073290      0.008333
  0.087032  0.105355  0.068709      0.008333
  0.087032  0.109935  0.064129      0.008333
  0.087032  0.114516  0.059548      0.008333
  0.087032  0.119096  0.054968      0.008333
  0.087032  0.123677  0.050387      0.008333
  0.087032  0.128258  0.045806      0.008333
  0.087032  0.132838  0.041226      0.008333
  0.087032  0.137419  0.036645      0.008333
  0.087032  0.142000  0.032064      0.008333
  0.087032  0.146580  0.027484      0.008333
  0.087032  0.151161  0.022903      0.008333
  0.087032  0.155741  0.018323      0.008333
  0.087032  0.160322  0.013742      0.008333
  0.087032  0.164903  0.009161      0.008333
  0.087032  0.169483  0.004581      0.008333
  0.087032  0.174064  0.000000      0.008333
  0.087032  0.174064  0.000000      0.008333
  0.082451  0.174064  0.000000      0.008333
  0.077871  0.174064 -0.000000      0.008333
  0.073290  0.174064 -0.000000      0.008333
  0.068709  0.174064 -0.000000      0.008333
  0.064129  0.174064 -0.000000      0.008333
  0.059548  0.174064  0.000000      0.008333
  0.054968  0.174064 -0.000000      0.008333
  0.050387  0.174064 -0.000000      0.008333
  0.045806  0.174064  0.000000      0.008333
  0.041226  0.174064 -0.000000      0.008333
  0.036645  0.174064 -0.000000      0.008333
  0.032064  0.174064  0.000000      0.008333
  0.027484  0.174064 -0.000000      0.008333
  0.022903  0.174064  0.000000      0.008333
  0.018323  0.174064 -0.000000      0.008333
  0.013742  0.174064 -0.000000      0.008333
  0.009161  0.174064  0.000000      0.008333
  0.004581  0.174064 -0.000000      0.008333
  0.000000  0.174064  0.000000      0.008333



--------------------------------------------------------------------------------------------------------




 Dimension of arrays:
   k-points           NKPTS =    120   k-points in BZ     NKDIM =    120   number of bands    NBANDS=     18
   number of dos      NEDOS =   2001   number of ions     NIONS =      2
   non local maximal  LDIM  =      6   non local SUM 2l+1 LMDIM =     18
   total plane-waves  NPLWV =  21952
   max r-space proj   IRMAX =      1   max aug-charges    IRDMAX= 124777
   dimension x,y,z NGX =    28 NGY =   28 NGZ =   28
   dimension x,y,z NGXF=    56 NGYF=   56 NGZF=   56
   support grid    NGXF=   112 NGYF=  112 NGZF=  112
   ions per type =               2
   NGX,Y,Z   is equivalent  to a cutoff of  11.46, 11.46, 11.46 a.u.
   NGXF,Y,Z  is equivalent  to a cutoff of  22.92, 22.92, 22.92 a.u.

 SYSTEM =  unknown system                          
 POSCAR =  Primitive Cell                          

 Startparameter for this run:
   NWRITE =      2    write-flag & timer
   PREC   = accura    normal or accurate (medium, high low for compatibility)
   ISTART =      1    job   : 0-new  1-cont  2-samecut
   ICHARG =     11    charge: 1-file 2-atom 10-const
   ISPIN  =      1    spin polarized calculation?
   LNONCOLLINEAR =      F non collinear calculations
   LSORBIT =      F    spin-orbit coupling
   INIWAV =      1    electr: 0-lowe 1-rand  2-diag
   LASPH  =      F    aspherical Exc in radial PAW
 Electronic Relaxation 1
   ENCUT  =  450.0 eV  33.07 Ry    5.75 a.u.   7.03  7.03  7.03*2*pi/ulx,y,z
   ENINI  =  450.0     initial cutoff
   ENAUG  =  531.4 eV  augmentation charge cutoff
   NELM   =     60;   NELMIN=  2; NELMDL=  0     # of ELM steps 
   EDIFF  = 0.1E-05   stopping-criterion for ELM
   LREAL  =      F    real-space projection
   NLSPLINE    = F    spline interpolate recip. space projectors
   LCOMPAT=      F    compatible to vasp.4.4
   GGA_COMPAT  = T    GGA compatible to vasp.4.4-vasp.4.6
   LMAXPAW     = -100 max onsite density
   LMAXMIX     =    2 max onsite mixed and CHGCAR
   VOSKOWN=      0    Vosko Wilk Nusair interpolation
   ROPT   =    0.00000
 Ionic relaxation
   EDIFFG = 0.1E-04   stopping-criterion for IOM
   NSW    =      0    number of steps for IOM
   NBLOCK =      1;   KBLOCK =      1    inner block; outer block 
   IBRION =     -1    ionic relax: 0-MD 1-quasi-New 2-CG
   NFREE  =      0    steps in history (QN), initial steepest desc. (CG)
   ISIF   =      2    stress and relaxation
   IWAVPR =     10    prediction:  0-non 1-charg 2-wave 3-comb
   ISYM   =      2    0-nonsym 1-usesym 2-fastsym
   LCORR  =      T    Harris-Foulkes like correction to forces

   POTIM  = 0.5000    time-step for ionic-motion
   TEIN   =    0.0    initial temperature
   TEBEG  =    0.0;   TEEND  =   0.0 temperature during run
   SMASS  =  -3.00    Nose mass-parameter (am)
   estimated Nose-frequenzy (Omega)   =  0.10E-29 period in steps = 0.13E+47 mass=  -0.377E-27a.u.
   SCALEE = 1.0000    scale energy and forces
   NPACO  =    256;   APACO  = 10.0  distance and # of slots for P.C.
   PSTRESS=    0.0 pullay stress

  Mass of Ions in am
   POMASS =  72.61
  Ionic Valenz
   ZVAL   =  14.00
  Atomic Wigner-Seitz radii
   RWIGS  =  -1.00
  virtual crystal weights 
   VCA    =   1.00
   NELECT =      28.0000    total number of electrons
   NUPDOWN=      -1.0000    fix difference up-down

 DOS related values:
   EMIN   =  10.00;   EMAX   =-10.00  energy-range for DOS
   EFERMI =   0.00
   ISMEAR =     0;   SIGMA  =   0.05  broadening in eV -4-tet -1-fermi 0-gaus

 Electronic relaxation 2 (details)
   IALGO  =     38    algorithm
   LDIAG  =      T    sub-space diagonalisation (order eigenvalues)
   LSUBROT=      F    optimize rotation matrix (better conditioning)
   TURBO    =      0    0=normal 1=particle mesh
   IRESTART =      0    0=no restart 2=restart with 2 vectors
   NREBOOT  =      0    no. of reboots
   NMIN     =      0    reboot dimension
   EREF     =   0.00    reference energy to select bands
   IMIX   =      4    mixing-type and parameters
     AMIX     =   0.40;   BMIX     =  1.00
     AMIX_MAG =   1.60;   BMIX_MAG =  1.00
     AMIN     =   0.10
     WC   =   100.;   INIMIX=   1;  MIXPRE=   1;  MAXMIX= -45

 Intra band minimization:
   WEIMIN = 0.0000     energy-eigenvalue tresh-hold
   EBREAK =  0.14E-07  absolut break condition
   DEPER  =   0.30     relativ break condition  

   TIME   =   0.40     timestep for ELM

  volume/ion in A,a.u.               =      23.70       159.95
  Fermi-wavevector in a.u.,A,eV,Ry     =   1.373588  2.595704 25.670700  1.886743
  Thomas-Fermi vector in A             =   2.499091

 Write flags
   LWAVE        =      T    write WAVECAR
   LDOWNSAMPLE  =      F    k-point downsampling of WAVECAR
   LCHARG       =      T    write CHGCAR
   LVTOT        =      F    write LOCPOT, total local potential
   LVHAR        =      F    write LOCPOT, Hartree potential only
   LELF         =      F    write electronic localiz. function (ELF)
   LORBIT       =     11    0 simple, 1 ext, 2 COOP (PROOUT), +10 PAW based schemes


 Dipole corrections
   LMONO  =      F    monopole corrections only (constant potential shift)
   LDIPOL =      F    correct potential (dipole corrections)
   IDIPOL =      0    1-x, 2-y, 3-z, 4-all directions 
   EPSILON=  1.0000000 bulk dielectric constant

 Exchange correlation treatment:
   GGA     =    --    GGA type
   LEXCH   =     8    internal setting for exchange type
   LIBXC   =     F    Libxc                    
   VOSKOWN =     0    Vosko Wilk Nusair interpolation
   LHFCALC =     F    Hartree Fock is set to
   LHFONE  =     F    Hartree Fock one center treatment
   AEXX    =    0.0000 exact exchange contribution

 Linear response parameters
   LEPSILON=     F    determine dielectric tensor
   LRPA    =     F    only Hartree local field effects (RPA)
   LNABLA  =     F    use nabla operator in PAW spheres
   LVEL    =     F    velocity operator in full k-point grid
   CSHIFT  =0.1000    complex shift for real part using Kramers Kronig
   OMEGAMAX=  -1.0    maximum frequency
   DEG_THRESHOLD= 0.2000000E-02 threshold for treating states as degnerate
   RTIME   =   -0.100 relaxation time in fs
  (WPLASMAI=    0.000 imaginary part of plasma frequency in eV, 0.658/RTIME)
   DFIELD  = 0.0000000 0.0000000 0.0000000 field for delta impulse in time

  Optional k-point grid parameters
   LKPOINTS_OPT  =     F    use optional k-point grid
   KPOINTS_OPT_MODE=     1    mode for optional k-point grid

 Orbital magnetization related:
   ORBITALMAG=     F  switch on orbital magnetization
   LCHIMAG   =     F  perturbation theory with respect to B field
   DQ        =  0.001000  dq finite difference perturbation B field
   LLRAUG    =     F  two centre corrections for induced B field



--------------------------------------------------------------------------------------------------------


 Static calculation
 charge density and potential remain constant during run
 non-spin polarized calculation
 Variant of blocked Davidson
 Davidson routine will perform the subspace rotation
 perform sub-space diagonalisation
    after iterative eigenvector-optimisation
 no mixing
 using additional bands            4
 reciprocal scheme for non local part
 use partial core corrections
 calculate Harris-corrections to forces   (improved forces if not selfconsistent)
 use gradient corrections 
 WARNING: stress and forces are not correct
  (second derivative of E(xc) not defined)
 use of overlap-Matrix (Vanderbilt PP)
 Gauss-broadening in eV      SIGMA  =   0.05


--------------------------------------------------------------------------------------------------------


  energy-cutoff  :      450.00
  volume of cell :       47.40
      direct lattice vectors                 reciprocal lattice vectors
     0.000000000  2.872507096  2.872507096    -0.174063974  0.174063974  0.174063974
     2.872507096  0.000000000  2.872507096     0.174063974 -0.174063974  0.174063974
     2.872507096  2.872507096  0.000000000     0.174063974  0.174063974 -0.174063974

  length of vectors
     4.062338493  4.062338493  4.062338493     0.301487646  0.301487646  0.301487646



 old parameters found on file WAVECAR:
  energy-cutoff  :      450.00
  volume of cell :       47.40
      direct lattice vectors                 reciprocal lattice vectors
    -0.000000000  2.872507096  2.872507096    -0.174063974  0.174063974  0.174063974
     2.872507096 -0.000000000  2.872507096     0.174063974 -0.174063974  0.174063974
     2.872507096  2.872507096  0.000000000     0.174063974  0.174063974 -0.174063974

  length of vectors


 k-points in units of 2pi/SCALE and weight: K-Path Generated by VASPKIT.            
   0.00000000  0.00000000  0.00000000       0.008
  -0.00000000  0.00916126  0.00000000       0.008
  -0.00000000  0.01832252  0.00000000       0.008
   0.00000000  0.02748379 -0.00000000       0.008
  -0.00000000  0.03664505  0.00000000       0.008
   0.00000000  0.04580631 -0.00000000       0.008
   0.00000000  0.05496757 -0.00000000       0.008
  -0.00000000  0.06412883  0.00000000       0.008
  -0.00000000  0.07329009  0.00000000       0.008
   0.00000000  0.08245136 -0.00000000       0.008
   0.00000000  0.09161262 -0.00000000       0.008
   0.00000000  0.10077388 -0.00000000       0.008
   0.00000000  0.10993514 -0.00000000       0.008
  -0.00000000  0.11909640  0.00000000       0.008
  -0.00000000  0.12825766  0.00000000       0.008
  -0.00000000  0.13741893  0.00000000       0.008
  -0.00000000  0.14658019  0.00000000       0.008
   0.00000000  0.15574145 -0.00000000       0.008
   0.00000000  0.16490271 -0.00000000       0.008
   0.00000000  0.17406397  0.00000000       0.008
   0.00000000  0.17406397  0.00000000       0.008
   0.00229032  0.17406397  0.00229032       0.008
   0.00458063  0.17406397  0.00458063       0.008
   0.00687095  0.17406397  0.00687095       0.008
   0.00916126  0.17406397  0.00916126       0.008
   0.01145158  0.17406397  0.01145158       0.008
   0.01374189  0.17406397  0.01374189       0.008
   0.01603221  0.17406397  0.01603221       0.008
   0.01832252  0.17406397  0.01832252       0.008
   0.02061284  0.17406397  0.02061284       0.008
   0.02290315  0.17406397  0.02290315       0.008
   0.02519347  0.17406397  0.02519347       0.008
   0.02748379  0.17406397  0.02748379       0.008
   0.02977410  0.17406397  0.02977410       0.008
   0.03206442  0.17406397  0.03206442       0.008
   0.03435473  0.17406397  0.03435473       0.008
   0.03664505  0.17406397  0.03664505       0.008
   0.03893536  0.17406397  0.03893536       0.008
   0.04122568  0.17406397  0.04122568       0.008
   0.04351599  0.17406397  0.04351599       0.008
   0.13054798  0.13054798  0.00000000       0.008
   0.12367703  0.12367703 -0.00000000       0.008
   0.11680609  0.11680609 -0.00000000       0.008
   0.10993514  0.10993514 -0.00000000       0.008
   0.10306420  0.10306420 -0.00000000       0.008
   0.09619325  0.09619325  0.00000000       0.008
   0.08932230  0.08932230  0.00000000       0.008
   0.08245136  0.08245136  0.00000000       0.008
   0.07558041  0.07558041  0.00000000       0.008
   0.06870946  0.06870946  0.00000000       0.008
   0.06183852  0.06183852 -0.00000000       0.008
   0.05496757  0.05496757  0.00000000       0.008
   0.04809662  0.04809662  0.00000000       0.008
   0.04122568  0.04122568  0.00000000       0.008
   0.03435473  0.03435473 -0.00000000       0.008
   0.02748379  0.02748379 -0.00000000       0.008
   0.02061284  0.02061284 -0.00000000       0.008
   0.01374189  0.01374189  0.00000000       0.008
   0.00687095  0.00687095  0.00000000       0.008
   0.00000000  0.00000000  0.00000000       0.008
   0.00000000  0.00000000  0.00000000       0.008
   0.00458063  0.00458063  0.00458063       0.008
   0.00916126  0.00916126  0.00916126       0.008
   0.01374189  0.01374189  0.01374189       0.008
   0.01832252  0.01832252  0.01832252       0.008
   0.02290315  0.02290315  0.02290315       0.008
   0.02748379  0.02748379  0.02748379       0.008
   0.03206442  0.03206442  0.03206442       0.008
   0.03664505  0.03664505  0.03664505       0.008
   0.04122568  0.04122568  0.04122568       0.008
   0.04580631  0.04580631  0.04580631       0.008
   0.05038694  0.05038694  0.05038694       0.008
   0.05496757  0.05496757  0.05496757       0.008
   0.05954820  0.05954820  0.05954820       0.008
   0.06412883  0.06412883  0.06412883       0.008
   0.06870946  0.06870946  0.06870946       0.008
   0.07329009  0.07329009  0.07329009       0.008
   0.07787073  0.07787073  0.07787073       0.008
   0.08245136  0.08245136  0.08245136       0.008
   0.08703199  0.08703199  0.08703199       0.008
   0.08703199  0.08703199  0.08703199       0.008
   0.08703199  0.09161262  0.08245136       0.008
   0.08703199  0.09619325  0.07787073       0.008
   0.08703199  0.10077388  0.07329009       0.008
   0.08703199  0.10535451  0.06870946       0.008
   0.08703199  0.10993514  0.06412883       0.008
   0.08703199  0.11451577  0.05954820       0.008
   0.08703199  0.11909640  0.05496757       0.008
   0.08703199  0.12367703  0.05038694       0.008
   0.08703199  0.12825766  0.04580631       0.008
   0.08703199  0.13283830  0.04122568       0.008
   0.08703199  0.13741893  0.03664505       0.008
   0.08703199  0.14199956  0.03206442       0.008
   0.08703199  0.14658019  0.02748379       0.008
   0.08703199  0.15116082  0.02290315       0.008
   0.08703199  0.15574145  0.01832252       0.008
   0.08703199  0.16032208  0.01374189       0.008
   0.08703199  0.16490271  0.00916126       0.008
   0.08703199  0.16948334  0.00458063       0.008
   0.08703199  0.17406397  0.00000000       0.008
   0.08703199  0.17406397  0.00000000       0.008
   0.08245136  0.17406397  0.00000000       0.008
   0.07787073  0.17406397  0.00000000       0.008
   0.07329009  0.17406397  0.00000000       0.008
   0.06870946  0.17406397 -0.00000000       0.008
   0.06412883  0.17406397  0.00000000       0.008
   0.05954820  0.17406397  0.00000000       0.008
   0.05496757  0.17406397 -0.00000000       0.008
   0.05038694  0.17406397 -0.00000000       0.008
   0.04580631  0.17406397  0.00000000       0.008
   0.04122568  0.17406397 -0.00000000       0.008
   0.03664505  0.17406397  0.00000000       0.008
   0.03206442  0.17406397  0.00000000       0.008
   0.02748379  0.17406397 -0.00000000       0.008
   0.02290315  0.17406397  0.00000000       0.008
   0.01832252  0.17406397 -0.00000000       0.008
   0.01374189  0.17406397 -0.00000000       0.008
   0.00916126  0.17406397  0.00000000       0.008
   0.00458063  0.17406397 -0.00000000       0.008
   0.00000000  0.17406397  0.00000000       0.008

 k-points in reciprocal lattice and weights: K-Path Generated by VASPKIT.            
   0.00000000  0.00000000  0.00000000       0.008
   0.02631579  0.00000000  0.02631579       0.008
   0.05263158  0.00000000  0.05263158       0.008
   0.07894737  0.00000000  0.07894737       0.008
   0.10526316  0.00000000  0.10526316       0.008
   0.13157895  0.00000000  0.13157895       0.008
   0.15789474  0.00000000  0.15789474       0.008
   0.18421053  0.00000000  0.18421053       0.008
   0.21052632  0.00000000  0.21052632       0.008
   0.23684211  0.00000000  0.23684211       0.008
   0.26315789  0.00000000  0.26315789       0.008
   0.28947368  0.00000000  0.28947368       0.008
   0.31578947  0.00000000  0.31578947       0.008
   0.34210526  0.00000000  0.34210526       0.008
   0.36842105  0.00000000  0.36842105       0.008
   0.39473684  0.00000000  0.39473684       0.008
   0.42105263  0.00000000  0.42105263       0.008
   0.44736842  0.00000000  0.44736842       0.008
   0.47368421  0.00000000  0.47368421       0.008
   0.50000000  0.00000000  0.50000000       0.008
   0.50000000  0.00000000  0.50000000       0.008
   0.50657895  0.01315789  0.50657895       0.008
   0.51315789  0.02631579  0.51315789       0.008
   0.51973684  0.03947368  0.51973684       0.008
   0.52631579  0.05263158  0.52631579       0.008
   0.53289474  0.06578947  0.53289474       0.008
   0.53947368  0.07894737  0.53947368       0.008
   0.54605263  0.09210526  0.54605263       0.008
   0.55263158  0.10526316  0.55263158       0.008
   0.55921053  0.11842105  0.55921053       0.008
   0.56578947  0.13157895  0.56578947       0.008
   0.57236842  0.14473684  0.57236842       0.008
   0.57894737  0.15789474  0.57894737       0.008
   0.58552632  0.17105263  0.58552632       0.008
   0.59210526  0.18421053  0.59210526       0.008
   0.59868421  0.19736842  0.59868421       0.008
   0.60526316  0.21052632  0.60526316       0.008
   0.61184211  0.22368421  0.61184211       0.008
   0.61842105  0.23684211  0.61842105       0.008
   0.62500000  0.25000000  0.62500000       0.008
   0.37500000  0.37500000  0.75000000       0.008
   0.35526316  0.35526316  0.71052632       0.008
   0.33552632  0.33552632  0.67105263       0.008
   0.31578947  0.31578947  0.63157895       0.008
   0.29605263  0.29605263  0.59210526       0.008
   0.27631579  0.27631579  0.55263158       0.008
   0.25657895  0.25657895  0.51315789       0.008
   0.23684211  0.23684211  0.47368421       0.008
   0.21710526  0.21710526  0.43421053       0.008
   0.19736842  0.19736842  0.39473684       0.008
   0.17763158  0.17763158  0.35526316       0.008
   0.15789474  0.15789474  0.31578947       0.008
   0.13815789  0.13815789  0.27631579       0.008
   0.11842105  0.11842105  0.23684211       0.008
   0.09868421  0.09868421  0.19736842       0.008
   0.07894737  0.07894737  0.15789474       0.008
   0.05921053  0.05921053  0.11842105       0.008
   0.03947368  0.03947368  0.07894737       0.008
   0.01973684  0.01973684  0.03947368       0.008
   0.00000000  0.00000000  0.00000000       0.008
   0.00000000  0.00000000  0.00000000       0.008
   0.02631579  0.02631579  0.02631579       0.008
   0.05263158  0.05263158  0.05263158       0.008
   0.07894737  0.07894737  0.07894737       0.008
   0.10526316  0.10526316  0.10526316       0.008
   0.13157895  0.13157895  0.13157895       0.008
   0.15789474  0.15789474  0.15789474       0.008
   0.18421053  0.18421053  0.18421053       0.008
   0.21052632  0.21052632  0.21052632       0.008
   0.23684211  0.23684211  0.23684211       0.008
   0.26315789  0.26315789  0.26315789       0.008
   0.28947368  0.28947368  0.28947368       0.008
   0.31578947  0.31578947  0.31578947       0.008
   0.34210526  0.34210526  0.34210526       0.008
   0.36842105  0.36842105  0.36842105       0.008
   0.39473684  0.39473684  0.39473684       0.008
   0.42105263  0.42105263  0.42105263       0.008
   0.44736842  0.44736842  0.44736842       0.008
   0.47368421  0.47368421  0.47368421       0.008
   0.50000000  0.50000000  0.50000000       0.008
   0.50000000  0.50000000  0.50000000       0.008
   0.50000000  0.48684211  0.51315789       0.008
   0.50000000  0.47368421  0.52631579       0.008
   0.50000000  0.46052632  0.53947368       0.008
   0.50000000  0.44736842  0.55263158       0.008
   0.50000000  0.43421053  0.56578947       0.008
   0.50000000  0.42105263  0.57894737       0.008
   0.50000000  0.40789474  0.59210526       0.008
   0.50000000  0.39473684  0.60526316       0.008
   0.50000000  0.38157895  0.61842105       0.008
   0.50000000  0.36842105  0.63157895       0.008
   0.50000000  0.35526316  0.64473684       0.008
   0.50000000  0.34210526  0.65789474       0.008
   0.50000000  0.32894737  0.67105263       0.008
   0.50000000  0.31578947  0.68421053       0.008
   0.50000000  0.30263158  0.69736842       0.008
   0.50000000  0.28947368  0.71052632       0.008
   0.50000000  0.27631579  0.72368421       0.008
   0.50000000  0.26315789  0.73684211       0.008
   0.50000000  0.25000000  0.75000000       0.008
   0.50000000  0.25000000  0.75000000       0.008
   0.50000000  0.23684211  0.73684211       0.008
   0.50000000  0.22368421  0.72368421       0.008
   0.50000000  0.21052632  0.71052632       0.008
   0.50000000  0.19736842  0.69736842       0.008
   0.50000000  0.18421053  0.68421053       0.008
   0.50000000  0.17105263  0.67105263       0.008
   0.50000000  0.15789474  0.65789474       0.008
   0.50000000  0.14473684  0.64473684       0.008
   0.50000000  0.13157895  0.63157895       0.008
   0.50000000  0.11842105  0.61842105       0.008
   0.50000000  0.10526316  0.60526316       0.008
   0.50000000  0.09210526  0.59210526       0.008
   0.50000000  0.07894737  0.57894737       0.008
   0.50000000  0.06578947  0.56578947       0.008
   0.50000000  0.05263158  0.55263158       0.008
   0.50000000  0.03947368  0.53947368       0.008
   0.50000000  0.02631579  0.52631579       0.008
   0.50000000  0.01315789  0.51315789       0.008
   0.50000000  0.00000000  0.50000000       0.008

 position of ions in fractional coordinates (direct lattice) 
   0.50000000  0.50000000  0.50000000
   0.75000000  0.75000000  0.75000000

 position of ions in cartesian coordinates  (Angst):
   2.87250710  2.87250710  2.87250710
   4.30876064  4.30876064  4.30876064



--------------------------------------------------------------------------------------------------------


 k-point   1 :   0.0000 0.0000 0.0000  plane waves:     965
 k-point   2 :   0.0263 0.0000 0.0263  plane waves:     997
 k-point   3 :   0.0526 0.0000 0.0526  plane waves:    1002
 k-point   4 :   0.0789 0.0000 0.0789  plane waves:    1010
 k-point   5 :   0.1053 0.0000 0.1053  plane waves:    1006
 k-point   6 :   0.1316 0.0000 0.1316  plane waves:    1006
 k-point   7 :   0.1579 0.0000 0.1579  plane waves:    1010
 k-point   8 :   0.1842 0.0000 0.1842  plane waves:    1010
 k-point   9 :   0.2105 0.0000 0.2105  plane waves:    1002
 k-point  10 :   0.2368 0.0000 0.2368  plane waves:    1018
 k-point  11 :   0.2632 0.0000 0.2632  plane waves:    1022
 k-point  12 :   0.2895 0.0000 0.2895  plane waves:    1022
 k-point  13 :   0.3158 0.0000 0.3158  plane waves:    1030
 k-point  14 :   0.3421 0.0000 0.3421  plane waves:    1030
 k-point  15 :   0.3684 0.0000 0.3684  plane waves:    1030
 k-point  16 :   0.3947 0.0000 0.3947  plane waves:    1030
 k-point  17 :   0.4211 0.0000 0.4211  plane waves:    1022
 k-point  18 :   0.4474 0.0000 0.4474  plane waves:    1014
 k-point  19 :   0.4737 0.0000 0.4737  plane waves:    1026
 k-point  20 :   0.5000 0.0000 0.5000  plane waves:    1034
 k-point  21 :   0.5000 0.0000 0.5000  plane waves:    1034
 k-point  22 :   0.5066 0.0132 0.5066  plane waves:    1034
 k-point  23 :   0.5132 0.0263 0.5132  plane waves:    1034
 k-point  24 :   0.5197 0.0395 0.5197  plane waves:    1029
 k-point  25 :   0.5263 0.0526 0.5263  plane waves:    1021
 k-point  26 :   0.5329 0.0658 0.5329  plane waves:    1021
 k-point  27 :   0.5395 0.0789 0.5395  plane waves:    1019
 k-point  28 :   0.5461 0.0921 0.5461  plane waves:    1023
 k-point  29 :   0.5526 0.1053 0.5526  plane waves:    1023
 k-point  30 :   0.5592 0.1184 0.5592  plane waves:    1033
 k-point  31 :   0.5658 0.1316 0.5658  plane waves:    1033
 k-point  32 :   0.5724 0.1447 0.5724  plane waves:    1033
 k-point  33 :   0.5789 0.1579 0.5789  plane waves:    1033
 k-point  34 :   0.5855 0.1711 0.5855  plane waves:    1033
 k-point  35 :   0.5921 0.1842 0.5921  plane waves:    1029
 k-point  36 :   0.5987 0.1974 0.5987  plane waves:    1029
 k-point  37 :   0.6053 0.2105 0.6053  plane waves:    1025
 k-point  38 :   0.6118 0.2237 0.6118  plane waves:    1025
 k-point  39 :   0.6184 0.2368 0.6184  plane waves:    1021
 k-point  40 :   0.6250 0.2500 0.6250  plane waves:    1021
 k-point  41 :   0.3750 0.3750 0.7500  plane waves:    1021
 k-point  42 :   0.3553 0.3553 0.7105  plane waves:    1027
 k-point  43 :   0.3355 0.3355 0.6711  plane waves:    1031
 k-point  44 :   0.3158 0.3158 0.6316  plane waves:    1025
 k-point  45 :   0.2961 0.2961 0.5921  plane waves:    1021
 k-point  46 :   0.2763 0.2763 0.5526  plane waves:    1025
 k-point  47 :   0.2566 0.2566 0.5132  plane waves:    1025
 k-point  48 :   0.2368 0.2368 0.4737  plane waves:    1025
 k-point  49 :   0.2171 0.2171 0.4342  plane waves:    1029
 k-point  50 :   0.1974 0.1974 0.3947  plane waves:    1017
 k-point  51 :   0.1776 0.1776 0.3553  plane waves:    1019
 k-point  52 :   0.1579 0.1579 0.3158  plane waves:    1017
 k-point  53 :   0.1382 0.1382 0.2763  plane waves:    1015
 k-point  54 :   0.1184 0.1184 0.2368  plane waves:    1007
 k-point  55 :   0.0987 0.0987 0.1974  plane waves:    1005
 k-point  56 :   0.0789 0.0789 0.1579  plane waves:    1003
 k-point  57 :   0.0592 0.0592 0.1184  plane waves:    1003
 k-point  58 :   0.0395 0.0395 0.0789  plane waves:     999
 k-point  59 :   0.0197 0.0197 0.0395  plane waves:     991
 k-point  60 :   0.0000 0.0000 0.0000  plane waves:     965
 k-point  61 :   0.0000 0.0000 0.0000  plane waves:     965
 k-point  62 :   0.0263 0.0263 0.0263  plane waves:     989
 k-point  63 :   0.0526 0.0526 0.0526  plane waves:    1001
 k-point  64 :   0.0789 0.0789 0.0789  plane waves:    1004
 k-point  65 :   0.1053 0.1053 0.1053  plane waves:    1001
 k-point  66 :   0.1316 0.1316 0.1316  plane waves:    1001
 k-point  67 :   0.1579 0.1579 0.1579  plane waves:    1001
 k-point  68 :   0.1842 0.1842 0.1842  plane waves:    1007
 k-point  69 :   0.2105 0.2105 0.2105  plane waves:    1007
 k-point  70 :   0.2368 0.2368 0.2368  plane waves:    1019
 k-point  71 :   0.2632 0.2632 0.2632  plane waves:    1023
 k-point  72 :   0.2895 0.2895 0.2895  plane waves:    1023
 k-point  73 :   0.3158 0.3158 0.3158  plane waves:    1023
 k-point  74 :   0.3421 0.3421 0.3421  plane waves:    1020
 k-point  75 :   0.3684 0.3684 0.3684  plane waves:    1029
 k-point  76 :   0.3947 0.3947 0.3947  plane waves:    1029
 k-point  77 :   0.4211 0.4211 0.4211  plane waves:    1032
 k-point  78 :   0.4474 0.4474 0.4474  plane waves:    1032
 k-point  79 :   0.4737 0.4737 0.4737  plane waves:    1032
 k-point  80 :   0.5000 0.5000 0.5000  plane waves:    1008
 k-point  81 :   0.5000 0.5000 0.5000  plane waves:    1008
 k-point  82 :   0.5000 0.4868 0.5132  plane waves:    1032
 k-point  83 :   0.5000 0.4737 0.5263  plane waves:    1032
 k-point  84 :   0.5000 0.4605 0.5395  plane waves:    1034
 k-point  85 :   0.5000 0.4474 0.5526  plane waves:    1024
 k-point  86 :   0.5000 0.4342 0.5658  plane waves:    1026
 k-point  87 :   0.5000 0.4211 0.5789  plane waves:    1028
 k-point  88 :   0.5000 0.4079 0.5921  plane waves:    1034
 k-point  89 :   0.5000 0.3947 0.6053  plane waves:    1034
 k-point  90 :   0.5000 0.3816 0.6184  plane waves:    1038
 k-point  91 :   0.5000 0.3684 0.6316  plane waves:    1038
 k-point  92 :   0.5000 0.3553 0.6447  plane waves:    1038
 k-point  93 :   0.5000 0.3421 0.6579  plane waves:    1036
 k-point  94 :   0.5000 0.3289 0.6711  plane waves:    1032
 k-point  95 :   0.5000 0.3158 0.6842  plane waves:    1034
 k-point  96 :   0.5000 0.3026 0.6974  plane waves:    1032
 k-point  97 :   0.5000 0.2895 0.7105  plane waves:    1034
 k-point  98 :   0.5000 0.2763 0.7237  plane waves:    1040
 k-point  99 :   0.5000 0.2632 0.7368  plane waves:    1038
 k-point 100 :   0.5000 0.2500 0.7500  plane waves:    1036
 k-point 101 :   0.5000 0.2500 0.7500  plane waves:    1036
 k-point 102 :   0.5000 0.2368 0.7368  plane waves:    1036
 k-point 103 :   0.5000 0.2237 0.7237  plane waves:    1038
 k-point 104 :   0.5000 0.2105 0.7105  plane waves:    1038
 k-point 105 :   0.5000 0.1974 0.6974  plane waves:    1028
 k-point 106 :   0.5000 0.1842 0.6842  plane waves:    1028
 k-point 107 :   0.5000 0.1711 0.6711  plane waves:    1032
 k-point 108 :   0.5000 0.1579 0.6579  plane waves:    1036
 k-point 109 :   0.5000 0.1447 0.6447  plane waves:    1028
 k-point 110 :   0.5000 0.1316 0.6316  plane waves:    1028
 k-point 111 :   0.5000 0.1184 0.6184  plane waves:    1032
 k-point 112 :   0.5000 0.1053 0.6053  plane waves:    1030
 k-point 113 :   0.5000 0.0921 0.5921  plane waves:    1022
 k-point 114 :   0.5000 0.0789 0.5789  plane waves:    1022
 k-point 115 :   0.5000 0.0658 0.5658  plane waves:    1022
 k-point 116 :   0.5000 0.0526 0.5526  plane waves:    1024
 k-point 117 :   0.5000 0.0395 0.5395  plane waves:    1024
 k-point 118 :   0.5000 0.0263 0.5263  plane waves:    1030
 k-point 119 :   0.5000 0.0132 0.5132  plane waves:    1034
 k-point 120 :   0.5000 0.0000 0.5000  plane waves:    1034

 maximum and minimum number of plane-waves per node :      1040      965

 maximum number of plane-waves:      1040
 maximum index in each direction: 
   IXMAX=    6   IYMAX=    7   IZMAX=    6
   IXMIN=   -7   IYMIN=   -7   IZMIN=   -7


 serial   3D FFT for wavefunctions
 parallel 3D FFT for charge:
    minimum data exchange during FFTs selected (reduces bandwidth)


 total amount of memory used by VASP MPI-rank0    84960. kBytes
=======================================================================

   base      :      30000. kBytes
   nonl-proj :      18004. kBytes
   fftplans  :      13127. kBytes
   grid      :       5205. kBytes
   one-center:         31. kBytes
   wavefun   :      18593. kBytes

     INWAV:  cpu time      0.0370: real time      0.0370
 initial charge density was supplied:
 number of electron      28.0000001 magnetization 
 keeping initial charge density in first step


--------------------------------------------------------------------------------------------------------


 Maximum index for augmentation-charges        60215 (set IRDMAX)


--------------------------------------------------------------------------------------------------------


 First call to EWALD:  gamma=   0.490
 Maximum number of real-space cells 3x 3x 3
 Maximum number of reciprocal cells 3x 3x 3

    FEWALD:  cpu time      0.0008: real time      0.0008


--------------------------------------- Iteration      1(   1)  ---------------------------------------


    POTLOK:  cpu time      0.0452: real time      0.0452
    SETDIJ:  cpu time      0.0799: real time      0.0799
     EDDAV:  cpu time      3.3659: real time      3.3667
       DOS:  cpu time      0.0037: real time      0.0037
    --------------------------------------------
      LOOP:  cpu time      3.4948: real time      3.4956

 eigenvalue-minimisations  :  5182
 total energy-change (2. order) : 0.9828853E+02  (-0.1796488E+04)
 number of electron      28.0000001 magnetization 
 augmentation part       28.0000001 magnetization 

 Free energy of the ion-electron system (eV)
  ---------------------------------------------------
  alpha Z        PSCENC =       123.61057381
  Ewald energy   TEWEN  =     -2646.37714754
  -Hartree energ DENC   =     -1530.81209375
  -exchange      EXHF   =         0.00000000
  -V(xc)+E(xc)   XCENC  =       145.67088086
  PAW double counting   =      4439.62651917    -5314.46425207
  entropy T*S    EENTRO =        -0.00081897
  eigenvalues    EBANDS =      -311.43020517
  atomic energy  EATOM  =      5192.46507749
  Solvation  Ediel_sol  =         0.00000000
  ---------------------------------------------------
  free energy    TOTEN  =        98.28853383 eV

  energy without entropy =       98.28935280  energy(sigma->0) =       98.28894331


--------------------------------------------------------------------------------------------------------




--------------------------------------- Iteration      1(   2)  ---------------------------------------


     EDDAV:  cpu time      3.1402: real time      3.1403
       DOS:  cpu time      0.0062: real time      0.0062
    --------------------------------------------
      LOOP:  cpu time      3.1463: real time      3.1465

 eigenvalue-minimisations  :  4736
 total energy-change (2. order) :-0.9811138E+02  (-0.9570399E+02)
 number of electron      28.0000001 magnetization 
 augmentation part       28.0000001 magnetization 

 Free energy of the ion-electron system (eV)
  ---------------------------------------------------
  alpha Z        PSCENC =       123.61057381
  Ewald energy   TEWEN  =     -2646.37714754
  -Hartree energ DENC   =     -1530.81209375
  -exchange      EXHF   =         0.00000000
  -V(xc)+E(xc)   XCENC  =       145.67088086
  PAW double counting   =      4439.62651917    -5314.46425207
  entropy T*S    EENTRO =        -0.00062615
  eigenvalues    EBANDS =      -409.54178146
  atomic energy  EATOM  =      5192.46507749
  Solvation  Ediel_sol  =         0.00000000
  ---------------------------------------------------
  free energy    TOTEN  =         0.17715036 eV

  energy without entropy =        0.17777651  energy(sigma->0) =        0.17746343


--------------------------------------------------------------------------------------------------------




--------------------------------------- Iteration      1(   3)  ---------------------------------------


     EDDAV:  cpu time      3.2679: real time      3.2680
       DOS:  cpu time      0.0092: real time      0.0092
    --------------------------------------------
      LOOP:  cpu time      3.2771: real time      3.2773

 eigenvalue-minimisations  :  4664
 total energy-change (2. order) :-0.7413544E+01  (-0.7400416E+01)
 number of electron      28.0000001 magnetization 
 augmentation part       28.0000001 magnetization 

 Free energy of the ion-electron system (eV)
  ---------------------------------------------------
  alpha Z        PSCENC =       123.61057381
  Ewald energy   TEWEN  =     -2646.37714754
  -Hartree energ DENC   =     -1530.81209375
  -exchange      EXHF   =         0.00000000
  -V(xc)+E(xc)   XCENC  =       145.67088086
  PAW double counting   =      4439.62651917    -5314.46425207
  entropy T*S    EENTRO =        -0.00233865
  eigenvalues    EBANDS =      -416.95361321
  atomic energy  EATOM  =      5192.46507749
  Solvation  Ediel_sol  =         0.00000000
  ---------------------------------------------------
  free energy    TOTEN  =        -7.23639389 eV

  energy without entropy =       -7.23405524  energy(sigma->0) =       -7.23522456


--------------------------------------------------------------------------------------------------------




--------------------------------------- Iteration      1(   4)  ---------------------------------------


     EDDAV:  cpu time      3.3615: real time      3.3618
       DOS:  cpu time      0.0049: real time      0.0049
    --------------------------------------------
      LOOP:  cpu time      3.3664: real time      3.3667

 eigenvalue-minimisations  :  4856
 total energy-change (2. order) :-0.2097524E+00  (-0.2096899E+00)
 number of electron      28.0000001 magnetization 
 augmentation part       28.0000001 magnetization 

 Free energy of the ion-electron system (eV)
  ---------------------------------------------------
  alpha Z        PSCENC =       123.61057381
  Ewald energy   TEWEN  =     -2646.37714754
  -Hartree energ DENC   =     -1530.81209375
  -exchange      EXHF   =         0.00000000
  -V(xc)+E(xc)   XCENC  =       145.67088086
  PAW double counting   =      4439.62651917    -5314.46425207
  entropy T*S    EENTRO =        -0.00239135
  eigenvalues    EBANDS =      -417.16331287
  atomic energy  EATOM  =      5192.46507749
  Solvation  Ediel_sol  =         0.00000000
  ---------------------------------------------------
  free energy    TOTEN  =        -7.44614625 eV

  energy without entropy =       -7.44375490  energy(sigma->0) =       -7.44495057


--------------------------------------------------------------------------------------------------------




--------------------------------------- Iteration      1(   5)  ---------------------------------------


     EDDAV:  cpu time      2.9868: real time      2.9870
       DOS:  cpu time      0.0077: real time      0.0077
    --------------------------------------------
      LOOP:  cpu time      2.9945: real time      2.9947

 eigenvalue-minimisations  :  4838
 total energy-change (2. order) :-0.4108989E-02  (-0.4108855E-02)
 number of electron      28.0000001 magnetization 
 augmentation part       28.0000001 magnetization 

 Free energy of the ion-electron system (eV)
  ---------------------------------------------------
  alpha Z        PSCENC =       123.61057381
  Ewald energy   TEWEN  =     -2646.37714754
  -Hartree energ DENC   =     -1530.81209375
  -exchange      EXHF   =         0.00000000
  -V(xc)+E(xc)   XCENC  =       145.67088086
  PAW double counting   =      4439.62651917    -5314.46425207
  entropy T*S    EENTRO =        -0.00239268
  eigenvalues    EBANDS =      -417.16742053
  atomic energy  EATOM  =      5192.46507749
  Solvation  Ediel_sol  =         0.00000000
  ---------------------------------------------------
  free energy    TOTEN  =        -7.45025524 eV

  energy without entropy =       -7.44786256  energy(sigma->0) =       -7.44905890


--------------------------------------------------------------------------------------------------------




--------------------------------------- Iteration      1(   6)  ---------------------------------------


     EDDAV:  cpu time      2.8257: real time      2.8259
       DOS:  cpu time      0.0066: real time      0.0066
    --------------------------------------------
      LOOP:  cpu time      2.8323: real time      2.8325

 eigenvalue-minimisations  :  4884
 total energy-change (2. order) :-0.1346755E-03  (-0.1346741E-03)
 number of electron      28.0000001 magnetization 
 augmentation part       28.0000001 magnetization 

 Free energy of the ion-electron system (eV)
  ---------------------------------------------------
  alpha Z        PSCENC =       123.61057381
  Ewald energy   TEWEN  =     -2646.37714754
  -Hartree energ DENC   =     -1530.81209375
  -exchange      EXHF   =         0.00000000
  -V(xc)+E(xc)   XCENC  =       145.67088086
  PAW double counting   =      4439.62651917    -5314.46425207
  entropy T*S    EENTRO =        -0.00239273
  eigenvalues    EBANDS =      -417.16755515
  atomic energy  EATOM  =      5192.46507749
  Solvation  Ediel_sol  =         0.00000000
  ---------------------------------------------------
  free energy    TOTEN  =        -7.45038991 eV

  energy without entropy =       -7.44799718  energy(sigma->0) =       -7.44919355


--------------------------------------------------------------------------------------------------------




--------------------------------------- Iteration      1(   7)  ---------------------------------------


     EDDAV:  cpu time      3.5522: real time      3.5524
       DOS:  cpu time      0.0040: real time      0.0040
    --------------------------------------------
      LOOP:  cpu time      3.5562: real time      3.5564

 eigenvalue-minimisations  :  5164
 total energy-change (2. order) :-0.6490704E-05  (-0.6490769E-05)
 number of electron      28.0000001 magnetization 
 augmentation part       28.0000001 magnetization 

 Free energy of the ion-electron system (eV)
  ---------------------------------------------------
  alpha Z        PSCENC =       123.61057381
  Ewald energy   TEWEN  =     -2646.37714754
  -Hartree energ DENC   =     -1530.81209375
  -exchange      EXHF   =         0.00000000
  -V(xc)+E(xc)   XCENC  =       145.67088086
  PAW double counting   =      4439.62651917    -5314.46425207
  entropy T*S    EENTRO =        -0.00239273
  eigenvalues    EBANDS =      -417.16756164
  atomic energy  EATOM  =      5192.46507749
  Solvation  Ediel_sol  =         0.00000000
  ---------------------------------------------------
  free energy    TOTEN  =        -7.45039640 eV

  energy without entropy =       -7.44800367  energy(sigma->0) =       -7.44920004


--------------------------------------------------------------------------------------------------------




--------------------------------------- Iteration      1(   8)  ---------------------------------------


     EDDAV:  cpu time      2.3926: real time      2.3927
       DOS:  cpu time      0.0026: real time      0.0026
    --------------------------------------------
      LOOP:  cpu time      2.3951: real time      2.3953

 eigenvalue-minimisations  :  3680
 total energy-change (2. order) :-0.2707266E-06  (-0.2709096E-06)
 number of electron      28.0000001 magnetization 
 augmentation part       28.0000001 magnetization 

 Free energy of the ion-electron system (eV)
  ---------------------------------------------------
  alpha Z        PSCENC =       123.61057381
  Ewald energy   TEWEN  =     -2646.37714754
  -Hartree energ DENC   =     -1530.81209375
  -exchange      EXHF   =         0.00000000
  -V(xc)+E(xc)   XCENC  =       145.67088086
  PAW double counting   =      4439.62651917    -5314.46425207
  entropy T*S    EENTRO =        -0.00239273
  eigenvalues    EBANDS =      -417.16756191
  atomic energy  EATOM  =      5192.46507749
  Solvation  Ediel_sol  =         0.00000000
  ---------------------------------------------------
  free energy    TOTEN  =        -7.45039668 eV

  energy without entropy =       -7.44800394  energy(sigma->0) =       -7.44920031


--------------------------------------------------------------------------------------------------------




 average (electrostatic) potential at core
  the test charge radii are     0.9911
  (the norm of the test charge is              1.0000)
       1 -75.2716       2 -74.8418



 E-fermi :   4.2209     XC(G=0):  -9.7815     alpha+bet : -9.9484

 Fermi energy:         4.2209478866

 k-point     1 :       0.0000    0.0000    0.0000
  band No.  band energies     occupation 
      1     -20.7129      2.00000
      2     -20.6722      2.00000
      3     -20.6722      2.00000
      4     -20.6117      2.00000
      5     -20.6117      2.00000
      6     -20.2294      2.00000
      7     -20.1887      2.00000
      8     -20.1887      2.00000
      9     -20.1432      2.00000
     10     -20.1432      2.00000
     11      -8.2568      2.00000
     12       3.6112      2.00000
     13       3.9618      2.00000
     14       4.2121      1.19851
     15       4.2121      1.19851
     16       6.8447      0.00000
     17       6.8447      0.00000
     18       6.8679      0.00000

 k-point     2 :       0.0263    0.0000    0.0263
  band No.  band energies     occupation 
      1     -20.7131      2.00000
      2     -20.6723      2.00000
      3     -20.6723      2.00000
      4     -20.6118      2.00000
      5     -20.6117      2.00000
      6     -20.2296      2.00000
      7     -20.1890      2.00000
      8     -20.1887      2.00000
      9     -20.1434      2.00000
     10     -20.1433      2.00000
     11      -8.2462      2.00000
     12       3.3229      2.00000
     13       3.9566      2.00000
     14       4.1620      1.90443
     15       4.4568      0.00000
     16       6.8170      0.00000
     17       6.9085      0.00000
     18       6.9215      0.00000

 k-point     3 :       0.0526    0.0000    0.0526
  band No.  band energies     occupation 
      1     -20.7133      2.00000
      2     -20.6724      2.00000
      3     -20.6723      2.00000
      4     -20.6116      2.00000
      5     -20.6113      2.00000
      6     -20.2295      2.00000
      7     -20.1895      2.00000
      8     -20.1886      2.00000
      9     -20.1434      2.00000
     10     -20.1432      2.00000
     11      -8.2141      2.00000
     12       2.8702      2.00000
     13       3.8407      2.00000
     14       4.0251      2.00000
     15       4.8883      0.00000
     16       6.7243      0.00000
     17       7.0865      0.00000
     18       7.0874      0.00000

 k-point     4 :       0.0789    0.0000    0.0789
  band No.  band energies     occupation 
      1     -20.7135      2.00000
      2     -20.6724      2.00000
      3     -20.6724      2.00000
      4     -20.6113      2.00000
      5     -20.6108      2.00000
      6     -20.2293      2.00000
      7     -20.1903      2.00000
      8     -20.1883      2.00000
      9     -20.1434      2.00000
     10     -20.1431      2.00000
     11      -8.1608      2.00000
     12       2.3971      2.00000
     13       3.6614      2.00000
     14       3.8295      2.00000
     15       5.3340      0.00000
     16       6.5857      0.00000
     17       7.3377      0.00000
     18       7.3504      0.00000

 k-point     5 :       0.1053    0.0000    0.1053
  band No.  band energies     occupation 
      1     -20.7138      2.00000
      2     -20.6724      2.00000
      3     -20.6723      2.00000
      4     -20.6108      2.00000
      5     -20.6100      2.00000
      6     -20.2291      2.00000
      7     -20.1912      2.00000
      8     -20.1879      2.00000
      9     -20.1433      2.00000
     10     -20.1429      2.00000
     11      -8.0863      2.00000
     12       1.9203      2.00000
     13       3.4476      2.00000
     14       3.6016      2.00000
     15       5.7612      0.00000
     16       6.4207      0.00000
     17       7.6481      0.00000
     18       7.6735      0.00000

 k-point     6 :       0.1316    0.0000    0.1316
  band No.  band energies     occupation 
      1     -20.7142      2.00000
      2     -20.6724      2.00000
      3     -20.6723      2.00000
      4     -20.6102      2.00000
      5     -20.6091      2.00000
      6     -20.2290      2.00000
      7     -20.1921      2.00000
      8     -20.1875      2.00000
      9     -20.1431      2.00000
     10     -20.1428      2.00000
     11      -7.9906      2.00000
     12       1.4444      2.00000
     13       3.2178      2.00000
     14       3.3599      2.00000
     15       6.1130      0.00000
     16       6.2825      0.00000
     17       8.0001      0.00000
     18       8.0369      0.00000

 k-point     7 :       0.1579    0.0000    0.1579
  band No.  band energies     occupation 
      1     -20.7147      2.00000
      2     -20.6724      2.00000
      3     -20.6724      2.00000
      4     -20.6095      2.00000
      5     -20.6081      2.00000
      6     -20.2290      2.00000
      7     -20.1929      2.00000
      8     -20.1871      2.00000
      9     -20.1428      2.00000
     10     -20.1427      2.00000
     11      -7.8740      2.00000
     12       0.9711      2.00000
     13       2.9842      2.00000
     14       3.1161      2.00000
     15       6.0267      0.00000
     16       6.5232      0.00000
     17       8.3813      0.00000
     18       8.4280      0.00000

 k-point     8 :       0.1842    0.0000    0.1842
  band No.  band energies     occupation 
      1     -20.7151      2.00000
      2     -20.6725      2.00000
      3     -20.6723      2.00000
      4     -20.6086      2.00000
      5     -20.6071      2.00000
      6     -20.2291      2.00000
      7     -20.1935      2.00000
      8     -20.1869      2.00000
      9     -20.1430      2.00000
     10     -20.1422      2.00000
     11      -7.7366      2.00000
     12       0.5016      2.00000
     13       2.7544      2.00000
     14       2.8778      2.00000
     15       5.8512      0.00000
     16       6.7748      0.00000
     17       8.7830      0.00000
     18       8.8389      0.00000

 k-point     9 :       0.2105    0.0000    0.2105
  band No.  band energies     occupation 
      1     -20.7155      2.00000
      2     -20.6726      2.00000
      3     -20.6721      2.00000
      4     -20.6076      2.00000
      5     -20.6060      2.00000
      6     -20.2294      2.00000
      7     -20.1936      2.00000
      8     -20.1867      2.00000
      9     -20.1432      2.00000
     10     -20.1416      2.00000
     11      -7.5787      2.00000
     12       0.0366      2.00000
     13       2.5337      2.00000
     14       2.6500      2.00000
     15       5.6826      0.00000
     16       6.9210      0.00000
     17       9.1996      0.00000
     18       9.2639      0.00000

 k-point    10 :       0.2368    0.0000    0.2368
  band No.  band energies     occupation 
      1     -20.7160      2.00000
      2     -20.6729      2.00000
      3     -20.6720      2.00000
      4     -20.6066      2.00000
      5     -20.6052      2.00000
      6     -20.2299      2.00000
      7     -20.1937      2.00000
      8     -20.1869      2.00000
      9     -20.1438      2.00000
     10     -20.1408      2.00000
     11      -7.4006      2.00000
     12      -0.4232      2.00000
     13       2.3256      2.00000
     14       2.4358      2.00000
     15       5.5285      0.00000
     16       6.9476      0.00000
     17       9.6274      0.00000
     18       9.6991      0.00000

 k-point    11 :       0.2632    0.0000    0.2632
  band No.  band energies     occupation 
      1     -20.7165      2.00000
      2     -20.6731      2.00000
      3     -20.6717      2.00000
      4     -20.6054      2.00000
      5     -20.6044      2.00000
      6     -20.2304      2.00000
      7     -20.1935      2.00000
      8     -20.1871      2.00000
      9     -20.1444      2.00000
     10     -20.1398      2.00000
     11      -7.2025      2.00000
     12      -0.8773      2.00000
     13       2.1326      2.00000
     14       2.2376      2.00000
     15       5.3923      0.00000
     16       6.8687      0.00000
     17      10.0638      0.00000
     18      10.1413      0.00000

 k-point    12 :       0.2895    0.0000    0.2895
  band No.  band energies     occupation 
      1     -20.7169      2.00000
      2     -20.6734      2.00000
      3     -20.6713      2.00000
      4     -20.6042      2.00000
      5     -20.6038      2.00000
      6     -20.2310      2.00000
      7     -20.1931      2.00000
      8     -20.1874      2.00000
      9     -20.1451      2.00000
     10     -20.1386      2.00000
     11      -6.9849      2.00000
     12      -1.3251      2.00000
     13       1.9566      2.00000
     14       2.0572      2.00000
     15       5.2765      0.00000
     16       6.7153      0.00000
     17      10.5064      0.00000
     18      10.5876      0.00000

 k-point    13 :       0.3158    0.0000    0.3158
  band No.  band energies     occupation 
      1     -20.7173      2.00000
      2     -20.6737      2.00000
      3     -20.6709      2.00000
      4     -20.6034      2.00000
      5     -20.6030      2.00000
      6     -20.2314      2.00000
      7     -20.1928      2.00000
      8     -20.1880      2.00000
      9     -20.1458      2.00000
     10     -20.1374      2.00000
     11      -6.7482      2.00000
     12      -1.7659      2.00000
     13       1.7988      2.00000
     14       1.8958      2.00000
     15       5.1828      0.00000
     16       6.5203      0.00000
     17      10.9522      0.00000
     18      11.0352      0.00000

 k-point    14 :       0.3421    0.0000    0.3421
  band No.  band energies     occupation 
      1     -20.7176      2.00000
      2     -20.6741      2.00000
      3     -20.6704      2.00000
      4     -20.6032      2.00000
      5     -20.6018      2.00000
      6     -20.2318      2.00000
      7     -20.1924      2.00000
      8     -20.1885      2.00000
      9     -20.1465      2.00000
     10     -20.1362      2.00000
     11      -6.4928      2.00000
     12      -2.1989      2.00000
     13       1.6604      2.00000
     14       1.7543      2.00000
     15       5.1123      0.00000
     16       6.3087      0.00000
     17      11.3968      0.00000
     18      11.4804      0.00000

 k-point    15 :       0.3684    0.0000    0.3684
  band No.  band energies     occupation 
      1     -20.7179      2.00000
      2     -20.6744      2.00000
      3     -20.6698      2.00000
      4     -20.6030      2.00000
      5     -20.6006      2.00000
      6     -20.2319      2.00000
      7     -20.1922      2.00000
      8     -20.1891      2.00000
      9     -20.1471      2.00000
     10     -20.1350      2.00000
     11      -6.2194      2.00000
     12      -2.6231      2.00000
     13       1.5421      2.00000
     14       1.6335      2.00000
     15       5.0656      0.00000
     16       6.0977      0.00000
     17      11.8341      0.00000
     18      11.9178      0.00000

 k-point    16 :       0.3947    0.0000    0.3947
  band No.  band energies     occupation 
      1     -20.7182      2.00000
      2     -20.6746      2.00000
      3     -20.6692      2.00000
      4     -20.6030      2.00000
      5     -20.5997      2.00000
      6     -20.2320      2.00000
      7     -20.1920      2.00000
      8     -20.1897      2.00000
      9     -20.1476      2.00000
     10     -20.1339      2.00000
     11      -5.9288      2.00000
     12      -3.0377      2.00000
     13       1.4446      2.00000
     14       1.5339      2.00000
     15       5.0430      0.00000
     16       5.8989      0.00000
     17      12.2544      0.00000
     18      12.3386      0.00000

 k-point    17 :       0.4211    0.0000    0.4211
  band No.  band energies     occupation 
      1     -20.7183      2.00000
      2     -20.6748      2.00000
      3     -20.6687      2.00000
      4     -20.6030      2.00000
      5     -20.5988      2.00000
      6     -20.2320      2.00000
      7     -20.1919      2.00000
      8     -20.1902      2.00000
      9     -20.1479      2.00000
     10     -20.1330      2.00000
     11      -5.6218      2.00000
     12      -3.4414      2.00000
     13       1.3683      2.00000
     14       1.4561      2.00000
     15       5.0436      0.00000
     16       5.7204      0.00000
     17      12.6416      0.00000
     18      12.7277      0.00000

 k-point    18 :       0.4474    0.0000    0.4474
  band No.  band energies     occupation 
      1     -20.7184      2.00000
      2     -20.6749      2.00000
      3     -20.6682      2.00000
      4     -20.6031      2.00000
      5     -20.5982      2.00000
      6     -20.2319      2.00000
      7     -20.1919      2.00000
      8     -20.1905      2.00000
      9     -20.1482      2.00000
     10     -20.1323      2.00000
     11      -5.3003      2.00000
     12      -3.8323      2.00000
     13       1.3136      2.00000
     14       1.4002      2.00000
     15       5.0646      0.00000
     16       5.5697      0.00000
     17      12.9696      0.00000
     18      13.0592      0.00000

 k-point    19 :       0.4737    0.0000    0.4737
  band No.  band energies     occupation 
      1     -20.7185      2.00000
      2     -20.6751      2.00000
      3     -20.6680      2.00000
      4     -20.6032      2.00000
      5     -20.5979      2.00000
      6     -20.2319      2.00000
      7     -20.1920      2.00000
      8     -20.1908      2.00000
      9     -20.1484      2.00000
     10     -20.1319      2.00000
     11      -4.9697      2.00000
     12      -4.2044      2.00000
     13       1.2807      2.00000
     14       1.3666      2.00000
     15       5.0966      0.00000
     16       5.4588      0.00000
     17      13.1980      0.00000
     18      13.2918      0.00000

 k-point    20 :       0.5000    0.0000    0.5000
  band No.  band energies     occupation 
      1     -20.7187      2.00000
      2     -20.6752      2.00000
      3     -20.6680      2.00000
      4     -20.6032      2.00000
      5     -20.5978      2.00000
      6     -20.2319      2.00000
      7     -20.1921      2.00000
      8     -20.1909      2.00000
      9     -20.1485      2.00000
     10     -20.1318      2.00000
     11      -4.7174      2.00000
     12      -4.4707      2.00000
     13       1.2697      2.00000
     14       1.3554      2.00000
     15       5.1149      0.00000
     16       5.4141      0.00000
     17      13.2815      0.00000
     18      13.3773      0.00000

 k-point    21 :       0.5000    0.0000    0.5000
  band No.  band energies     occupation 
      1     -20.7187      2.00000
      2     -20.6752      2.00000
      3     -20.6680      2.00000
      4     -20.6032      2.00000
      5     -20.5978      2.00000
      6     -20.2319      2.00000
      7     -20.1921      2.00000
      8     -20.1909      2.00000
      9     -20.1485      2.00000
     10     -20.1318      2.00000
     11      -4.7174      2.00000
     12      -4.4707      2.00000
     13       1.2697      2.00000
     14       1.3554      2.00000
     15       5.1149      0.00000
     16       5.4141      0.00000
     17      13.2815      0.00000
     18      13.3773      0.00000

 k-point    22 :       0.5066    0.0132    0.5066
  band No.  band energies     occupation 
      1     -20.7187      2.00000
      2     -20.6752      2.00000
      3     -20.6679      2.00000
      4     -20.6032      2.00000
      5     -20.5978      2.00000
      6     -20.2319      2.00000
      7     -20.1920      2.00000
      8     -20.1909      2.00000
      9     -20.1485      2.00000
     10     -20.1318      2.00000
     11      -4.7162      2.00000
     12      -4.4714      2.00000
     13       1.2621      2.00000
     14       1.3566      2.00000
     15       5.1277      0.00000
     16       5.4152      0.00000
     17      13.2684      0.00000
     18      13.3687      0.00000

 k-point    23 :       0.5132    0.0263    0.5132
  band No.  band energies     occupation 
      1     -20.7188      2.00000
      2     -20.6752      2.00000
      3     -20.6678      2.00000
      4     -20.6032      2.00000
      5     -20.5978      2.00000
      6     -20.2321      2.00000
      7     -20.1919      2.00000
      8     -20.1910      2.00000
      9     -20.1485      2.00000
     10     -20.1318      2.00000
     11      -4.7128      2.00000
     12      -4.4734      2.00000
     13       1.2398      2.00000
     14       1.3602      2.00000
     15       5.1660      0.00000
     16       5.4187      0.00000
     17      13.2300      0.00000
     18      13.3433      0.00000

 k-point    24 :       0.5197    0.0395    0.5197
  band No.  band energies     occupation 
      1     -20.7189      2.00000
      2     -20.6752      2.00000
      3     -20.6676      2.00000
      4     -20.6031      2.00000
      5     -20.5978      2.00000
      6     -20.2323      2.00000
      7     -20.1917      2.00000
      8     -20.1909      2.00000
      9     -20.1484      2.00000
     10     -20.1318      2.00000
     11      -4.7074      2.00000
     12      -4.4766      2.00000
     13       1.2038      2.00000
     14       1.3660      2.00000
     15       5.2282      0.00000
     16       5.4249      0.00000
     17      13.1688      0.00000
     18      13.3017      0.00000

 k-point    25 :       0.5263    0.0526    0.5263
  band No.  band energies     occupation 
      1     -20.7190      2.00000
      2     -20.6752      2.00000
      3     -20.6673      2.00000
[...]
     11      -4.6627      2.00000
     12      -4.4008      2.00000
     13       0.6169      2.00000
     14       0.7964      2.00000
     15       7.2382      0.00000
     16       7.4724      0.00000
     17      10.1884      0.00000
     18      10.4036      0.00000

 k-point   107 :       0.5000    0.1711    0.6711
  band No.  band energies     occupation 
      1     -20.7231      2.00000
      2     -20.6764      2.00000
      3     -20.6626      2.00000
      4     -20.6079      2.00000
      5     -20.5905      2.00000
      6     -20.2373      2.00000
      7     -20.1959      2.00000
      8     -20.1834      2.00000
      9     -20.1570      2.00000
     10     -20.1238      2.00000
     11      -4.6671      2.00000
     12      -4.4064      2.00000
     13       0.6589      2.00000
     14       0.8339      2.00000
     15       6.9934      0.00000
     16       7.2339      0.00000
     17      10.4904      0.00000
     18      10.6998      0.00000

 k-point   108 :       0.5000    0.1579    0.6579
  band No.  band energies     occupation 
      1     -20.7228      2.00000
      2     -20.6763      2.00000
      3     -20.6632      2.00000
      4     -20.6076      2.00000
      5     -20.5911      2.00000
      6     -20.2369      2.00000
      7     -20.1957      2.00000
      8     -20.1840      2.00000
      9     -20.1564      2.00000
     10     -20.1244      2.00000
     11      -4.6719      2.00000
     12      -4.4126      2.00000
     13       0.7069      2.00000
     14       0.8766      2.00000
     15       6.7567      0.00000
     16       7.0031      0.00000
     17      10.7940      0.00000
     18      10.9974      0.00000

 k-point   109 :       0.5000    0.1447    0.6447
  band No.  band energies     occupation 
      1     -20.7223      2.00000
      2     -20.6761      2.00000
      3     -20.6637      2.00000
      4     -20.6072      2.00000
      5     -20.5916      2.00000
      6     -20.2363      2.00000
      7     -20.1954      2.00000
      8     -20.1845      2.00000
      9     -20.1556      2.00000
     10     -20.1250      2.00000
     11      -4.6771      2.00000
     12      -4.4193      2.00000
     13       0.7600      2.00000
     14       0.9237      2.00000
     15       6.5295      0.00000
     16       6.7816      0.00000
     17      11.0969      0.00000
     18      11.2936      0.00000

 k-point   110 :       0.5000    0.1316    0.6316
  band No.  band energies     occupation 
      1     -20.7218      2.00000
      2     -20.6759      2.00000
      3     -20.6643      2.00000
      4     -20.6069      2.00000
      5     -20.5922      2.00000
      6     -20.2358      2.00000
      7     -20.1952      2.00000
      8     -20.1851      2.00000
      9     -20.1549      2.00000
     10     -20.1257      2.00000
     11      -4.6824      2.00000
     12      -4.4262      2.00000
     13       0.8173      2.00000
     14       0.9743      2.00000
     15       6.3132      0.00000
     16       6.5710      0.00000
     17      11.3968      0.00000
     18      11.5860      0.00000

 k-point   111 :       0.5000    0.1184    0.6184
  band No.  band energies     occupation 
      1     -20.7214      2.00000
      2     -20.6758      2.00000
      3     -20.6649      2.00000
      4     -20.6066      2.00000
      5     -20.5929      2.00000
      6     -20.2353      2.00000
      7     -20.1949      2.00000
      8     -20.1858      2.00000
      9     -20.1541      2.00000
     10     -20.1264      2.00000
     11      -4.6879      2.00000
     12      -4.4331      2.00000
     13       0.8776      2.00000
     14       1.0271      2.00000
     15       6.1093      0.00000
     16       6.3728      0.00000
     17      11.6908      0.00000
     18      11.8713      0.00000

 k-point   112 :       0.5000    0.1053    0.6053
  band No.  band energies     occupation 
      1     -20.7209      2.00000
      2     -20.6756      2.00000
      3     -20.6654      2.00000
      4     -20.6062      2.00000
      5     -20.5936      2.00000
      6     -20.2347      2.00000
      7     -20.1946      2.00000
      8     -20.1865      2.00000
      9     -20.1532      2.00000
     10     -20.1272      2.00000
     11      -4.6932      2.00000
     12      -4.4399      2.00000
     13       0.9395      2.00000
     14       1.0810      2.00000
     15       5.9193      0.00000
     16       6.1883      0.00000
     17      11.9754      0.00000
     18      12.1458      0.00000

 k-point   113 :       0.5000    0.0921    0.5921
  band No.  band energies     occupation 
      1     -20.7204      2.00000
      2     -20.6755      2.00000
      3     -20.6659      2.00000
      4     -20.6057      2.00000
      5     -20.5942      2.00000
      6     -20.2340      2.00000
      7     -20.1943      2.00000
      8     -20.1871      2.00000
      9     -20.1524      2.00000
     10     -20.1280      2.00000
     11      -4.6982      2.00000
     12      -4.4463      2.00000
     13       1.0013      2.00000
     14       1.1343      2.00000
     15       5.7447      0.00000
     16       6.0193      0.00000
     17      12.2464      0.00000
     18      12.4052      0.00000

 k-point   114 :       0.5000    0.0789    0.5789
  band No.  band energies     occupation 
      1     -20.7200      2.00000
      2     -20.6753      2.00000
      3     -20.6664      2.00000
      4     -20.6052      2.00000
      5     -20.5949      2.00000
      6     -20.2335      2.00000
      7     -20.1940      2.00000
      8     -20.1878      2.00000
      9     -20.1515      2.00000
     10     -20.1288      2.00000
     11      -4.7029      2.00000
     12      -4.4523      2.00000
     13       1.0614      2.00000
     14       1.1854      2.00000
     15       5.5875      0.00000
     16       5.8675      0.00000
     17      12.4985      0.00000
     18      12.6443      0.00000

 k-point   115 :       0.5000    0.0658    0.5658
  band No.  band energies     occupation 
      1     -20.7196      2.00000
      2     -20.6753      2.00000
      3     -20.6668      2.00000
      4     -20.6048      2.00000
      5     -20.5956      2.00000
      6     -20.2330      2.00000
      7     -20.1936      2.00000
      8     -20.1885      2.00000
      9     -20.1507      2.00000
     10     -20.1295      2.00000
     11      -4.7071      2.00000
     12      -4.4576      2.00000
     13       1.1177      2.00000
     14       1.2327      2.00000
     15       5.4494      0.00000
     16       5.7345      0.00000
     17      12.7253      0.00000
     18      12.8574      0.00000

 k-point   116 :       0.5000    0.0526    0.5526
  band No.  band energies     occupation 
      1     -20.7193      2.00000
      2     -20.6752      2.00000
      3     -20.6672      2.00000
      4     -20.6043      2.00000
      5     -20.5963      2.00000
      6     -20.2326      2.00000
      7     -20.1933      2.00000
      8     -20.1891      2.00000
      9     -20.1500      2.00000
     10     -20.1303      2.00000
     11      -4.7107      2.00000
     12      -4.4622      2.00000
     13       1.1681      2.00000
     14       1.2744      2.00000
     15       5.3326      0.00000
     16       5.6223      0.00000
     17      12.9201      0.00000
     18      13.0391      0.00000

 k-point   117 :       0.5000    0.0395    0.5395
  band No.  band energies     occupation 
      1     -20.7190      2.00000
      2     -20.6752      2.00000
      3     -20.6675      2.00000
      4     -20.6039      2.00000
      5     -20.5968      2.00000
      6     -20.2323      2.00000
      7     -20.1929      2.00000
      8     -20.1897      2.00000
      9     -20.1494      2.00000
     10     -20.1309      2.00000
     11      -4.7135      2.00000
     12      -4.4658      2.00000
     13       1.2105      2.00000
     14       1.3087      2.00000
     15       5.2390      0.00000
     16       5.5327      0.00000
     17      13.0767      0.00000
     18      13.1848      0.00000

 k-point   118 :       0.5000    0.0263    0.5263
  band No.  band energies     occupation 
      1     -20.7188      2.00000
      2     -20.6752      2.00000
      3     -20.6678      2.00000
      4     -20.6036      2.00000
      5     -20.5973      2.00000
      6     -20.2321      2.00000
      7     -20.1926      2.00000
      8     -20.1902      2.00000
      9     -20.1489      2.00000
     10     -20.1314      2.00000
     11      -4.7157      2.00000
     12      -4.4685      2.00000
     13       1.2427      2.00000
     14       1.3343      2.00000
     15       5.1706      0.00000
     16       5.4673      0.00000
     17      13.1903      0.00000
     18      13.2910      0.00000

 k-point   119 :       0.5000    0.0132    0.5132
  band No.  band energies     occupation 
      1     -20.7187      2.00000
      2     -20.6752      2.00000
      3     -20.6679      2.00000
      4     -20.6033      2.00000
      5     -20.5977      2.00000
      6     -20.2319      2.00000
      7     -20.1922      2.00000
      8     -20.1907      2.00000
      9     -20.1486      2.00000
     10     -20.1317      2.00000
     11      -4.7169      2.00000
     12      -4.4701      2.00000
     13       1.2628      2.00000
     14       1.3501      2.00000
     15       5.1289      0.00000
     16       5.4274      0.00000
     17      13.2587      0.00000
     18      13.3556      0.00000

 k-point   120 :       0.5000    0.0000    0.5000
  band No.  band energies     occupation 
      1     -20.7187      2.00000
      2     -20.6752      2.00000
      3     -20.6680      2.00000
      4     -20.6032      2.00000
      5     -20.5978      2.00000
      6     -20.2319      2.00000
      7     -20.1921      2.00000
      8     -20.1909      2.00000
      9     -20.1485      2.00000
     10     -20.1318      2.00000
     11      -4.7174      2.00000
     12      -4.4707      2.00000
     13       1.2697      2.00000
     14       1.3554      2.00000
     15       5.1149      0.00000
     16       5.4141      0.00000
     17      13.2815      0.00000
     18      13.3773      0.00000


--------------------------------------------------------------------------------------------------------


 soft charge-density along one line, spin component           1
         0         1         2         3         4         5         6         7         8         9
 total charge-density along one line

 pseudopotential strength for first ion, spin component:           1
-23.103  -0.015   0.018  -0.015  -0.000   4.764   0.006  -0.007
 -0.015 -23.103  -0.009  -0.015   0.016   0.006   4.764   0.003
  0.018  -0.009 -23.099  -0.009  -0.000  -0.007   0.003   4.762
 -0.015  -0.015  -0.009 -23.103  -0.016   0.006   0.006   0.003
 -0.000   0.016  -0.000  -0.016 -23.099   0.000  -0.006   0.000
  4.764   0.006  -0.007   0.006   0.000   1.787  -0.001   0.001
  0.006   4.764   0.003   0.006  -0.006  -0.001   1.787  -0.000
 -0.007   0.003   4.762   0.003   0.000   0.001  -0.000   1.786
  0.006   0.006   0.003   4.764   0.006  -0.001  -0.001  -0.000
  0.000  -0.006   0.000   0.006   4.762   0.000   0.001  -0.000
 -0.003  -0.003  -0.000  -0.003   0.000   0.008   0.008   0.000
 -0.004  -0.004  -0.000  -0.004   0.000   0.010   0.010   0.000
 -0.000  -0.000  -0.000  -0.003  -0.000   0.000   0.000   0.000
 -0.003  -0.000   0.000  -0.000   0.000   0.005   0.000  -0.000
 -0.000  -0.003  -0.000  -0.000   0.000   0.000   0.005   0.000
 -0.000  -0.000  -0.000  -0.005  -0.000   0.000   0.000   0.000
 -0.005  -0.000   0.000  -0.000   0.000   0.009   0.000  -0.000
 -0.000  -0.005  -0.000  -0.000   0.000   0.000   0.009   0.000
 total augmentation occupancy for first ion, spin component:           1
  2.000   0.000   0.000   0.000   0.000   0.000   0.000   0.000   0.000   0.000   0.000   0.000   0.000   0.000   0.000   0.000
  0.000   2.000   0.000   0.000   0.000   0.000   0.000   0.000   0.000   0.000   0.000   0.000   0.000   0.000   0.000   0.000
  0.000   0.000   2.000   0.000   0.000   0.000   0.000   0.000   0.000   0.000   0.000   0.000   0.000   0.000   0.000   0.000
  0.000   0.000   0.000   2.000   0.000   0.000   0.000   0.000   0.000   0.000   0.000   0.000   0.000   0.000   0.000   0.000
  0.000   0.000   0.000   0.000   2.000   0.000   0.000   0.000   0.000   0.000   0.000   0.000   0.000   0.000   0.000   0.000
  0.000   0.000   0.000   0.000   0.000   0.000   0.000   0.000   0.000   0.000   0.000   0.000   0.000   0.000   0.000   0.000
  0.000   0.000   0.000   0.000   0.000   0.000   0.000   0.000   0.000   0.000   0.000   0.000   0.000   0.000   0.000   0.000
  0.000   0.000   0.000   0.000   0.000   0.000   0.000   0.000   0.000   0.000   0.000   0.000   0.000   0.000   0.000   0.000
  0.000   0.000   0.000   0.000   0.000   0.000   0.000   0.000   0.000   0.000   0.000   0.000   0.000   0.000   0.000   0.000
  0.000   0.000   0.000   0.000   0.000   0.000   0.000   0.000   0.000   0.000   0.000   0.000   0.000   0.000   0.000   0.000
  0.000   0.000   0.000   0.000   0.000   0.000   0.000   0.000   0.000   0.000   2.000   0.000   0.000   0.000   0.000   0.000
  0.000   0.000   0.000   0.000   0.000   0.000   0.000   0.000   0.000   0.000   0.000   0.000   0.000   0.000   0.000   0.000
  0.000   0.000   0.000   0.000   0.000   0.000   0.000   0.000   0.000   0.000   0.000   0.000   0.667   0.000   0.000   0.000
  0.000   0.000   0.000   0.000   0.000   0.000   0.000   0.000   0.000   0.000   0.000   0.000   0.000   0.667   0.000   0.000
  0.000   0.000   0.000   0.000   0.000   0.000   0.000   0.000   0.000   0.000   0.000   0.000   0.000   0.000   0.667   0.000
  0.000   0.000   0.000   0.000   0.000   0.000   0.000   0.000   0.000   0.000   0.000   0.000   0.000   0.000   0.000   0.000
  0.000   0.000   0.000   0.000   0.000   0.000   0.000   0.000   0.000   0.000   0.000   0.000   0.000   0.000   0.000   0.000
  0.000   0.000   0.000   0.000   0.000   0.000   0.000   0.000   0.000   0.000   0.000   0.000   0.000   0.000   0.000   0.000


------------------------ aborting loop because EDIFF is reached ----------------------------------------





 total charge

# of ion       s       p       d       tot
------------------------------------------
    1        1.151   1.286  10.027  12.464
    2        1.151   1.286  10.027  12.464
--------------------------------------------------
tot          2.302   2.571  20.055  24.928

    CHARGE:  cpu time      0.2795: real time      0.2795
    FORLOC:  cpu time      0.0011: real time      0.0011
    FORNL :  cpu time      0.5853: real time      0.5853
    STRESS:  cpu time      1.7584: real time      1.7585
    FORCOR:  cpu time      0.0472: real time      0.0472
    FORHAR:  cpu time      0.0152: real time      0.0152
    OFIELD:  cpu time      0.0002: real time      0.0002

  FORCE on cell =-STRESS in cart. coord.  units (eV):
  Direction    XX          YY          ZZ          XY          YZ          ZX
  --------------------------------------------------------------------------------------
  Alpha Z   123.61057   123.61057   123.61057
  Ewald    -882.12611  -882.12611  -882.12611     0.00000     0.00000    -0.00000
  Hartree   518.10854   518.10854   518.10854     0.00000     0.00000     0.00000
  E(xc)    -164.90364  -164.90364  -164.90364    -0.07584    -0.07584    -0.07584
  Local     -49.82354   -49.82354   -49.82354     0.00033     0.00033     0.00033
  n-local    66.81653    60.92670    65.44795    -1.48387    -0.28350    -0.82985
  augment   248.31973   248.31973   248.31973    -1.00990    -1.00990    -1.00990
  Kinetic   150.82656   143.69811   150.71840    -2.59635    -1.64975    -2.65551
  Fock        0.00000     0.00000     0.00000     0.00000     0.00000     0.00000
  -------------------------------------------------------------------------------------
  Total       5.99696     5.99696     5.99696    -0.00000    -0.00000     0.00000
  in kB     202.68825   202.68825   202.68825    -0.00000    -0.00000     0.00000
  external pressure =      202.69 kB  Pullay stress =        0.00 kB


 VOLUME and BASIS-vectors are now :
 -----------------------------------------------------------------------------
  energy-cutoff  :      450.00
  volume of cell :       47.40
      direct lattice vectors                 reciprocal lattice vectors
     0.000000000  2.872507096  2.872507096    -0.174063974  0.174063974  0.174063974
     2.872507096  0.000000000  2.872507096     0.174063974 -0.174063974  0.174063974
     2.872507096  2.872507096  0.000000000     0.174063974  0.174063974 -0.174063974

  length of vectors
     4.062338493  4.062338493  4.062338493     0.301487646  0.301487646  0.301487646


 FORCES acting on ions
    electron-ion (+dipol)            ewald-force                    non-local-force                 convergence-correction
 -----------------------------------------------------------------------------------------------
   0.597E-07 0.597E-07 0.150E-06   -.550E-13 0.106E-12 -.964E-13   -.469E-16 -.469E-16 -.112E-16   -.256E-01 -.256E-01 -.256E-01
   -.597E-07 -.597E-07 -.150E-06   0.553E-13 -.106E-12 0.973E-13   0.527E-16 0.458E-16 -.739E-18   0.566E+01 0.566E+01 0.566E+01
 -----------------------------------------------------------------------------------------------
   0.465E-11 0.400E-11 0.473E-11   0.342E-15 0.385E-15 0.885E-15   0.579E-17 -.115E-17 -.120E-16   0.563E+01 0.563E+01 0.563E+01


 POSITION                                       TOTAL-FORCE (eV/Angst)
 -----------------------------------------------------------------------------------
      2.87251      2.87251      2.87251        -0.000000     -0.000000     -0.000000
      4.30876      4.30876      4.30876         0.000000      0.000000      0.000000
 -----------------------------------------------------------------------------------
    total drift:                                5.634633      5.634633      5.634643


--------------------------------------------------------------------------------------------------------



  FREE ENERGIE OF THE ION-ELECTRON SYSTEM (eV)
  ---------------------------------------------------
  free  energy   TOTEN  =        -7.45039668 eV

  energy  without entropy=       -7.44800394  energy(sigma->0) =       -7.44920031



--------------------------------------------------------------------------------------------------------


    POTLOK:  cpu time      0.1237: real time      0.1237


--------------------------------------------------------------------------------------------------------


 writing wavefunctions
     LOOP+:  cpu time     28.1586: real time     28.1607
    4ORBIT:  cpu time      0.0000: real time      0.0000



 total charge

# of ion       s       p       d       tot
------------------------------------------
    1        1.151   1.286  10.027  12.464
    2        1.151   1.286  10.027  12.464
--------------------------------------------------
tot          2.302   2.571  20.055  24.928


 total amount of memory used by VASP MPI-rank0    84960. kBytes
=======================================================================

   base      :      30000. kBytes
   nonl-proj :      18004. kBytes
   fftplans  :      13127. kBytes
   grid      :       5205. kBytes
   one-center:         31. kBytes
   wavefun   :      18593. kBytes

  
  
 General timing and accounting informations for this job:
 ========================================================
  
                  Total CPU time used (sec):       29.577
                            User time (sec):       27.933
                          System time (sec):        1.644
                         Elapsed time (sec):       29.827
  
                   Maximum memory used (kb):      148476.
                   Average memory used (kb):          N/A
  
                          Minor page faults:       192888
                          Major page faults:            0
                 Voluntary context switches:         1260
