PROCAR lm decomposed
# of k-points:  100         # of bands:   18         # of ions:    2

 k-point     1 :    0.37500000 0.37500000 0.75000000     weight = 0.01000000

band     1 # energy  -19.53773526 # occ.  2.00000000

ion      s     py     pz     px    dxy    dyz    dz2    dxz  x2-y2    tot
    1  0.000  0.000  0.000  0.000  0.253  0.292  0.040  0.292  0.000  0.877
    2  0.000  0.000  0.000  0.000  0.030  0.040  0.007  0.040  0.000  0.117
tot    0.000  0.000  0.000  0.000  0.283  0.331  0.048  0.331  0.000  0.994

band     2 # energy  -19.46925984 # occ.  2.00000000

ion      s     py     pz     px    dxy    dyz    dz2    dxz  x2-y2    tot
    1  0.000  0.000  0.000  0.000  0.000  0.363  0.000  0.363  0.174  0.901
    2  0.000  0.000  0.000  0.000  0.000  0.045  0.000  0.045  0.004  0.094
tot    0.000  0.000  0.000  0.000  0.000  0.408  0.000  0.408  0.178  0.995

band     3 # energy  -19.44447466 # occ.  2.00000000

ion      s     py     pz     px    dxy    dyz    dz2    dxz  x2-y2    tot
    1  0.000  0.000  0.000  0.000  0.480  0.112  0.272  0.112  0.000  0.977
    2  0.002  0.000  0.000  0.000  0.007  0.002  0.004  0.002  0.000  0.018
tot    0.002  0.000  0.000  0.000  0.488  0.115  0.276  0.115  0.000  0.995

band     4 # energy  -19.36230633 # occ.  2.00000000

ion      s     py     pz     px    dxy    dyz    dz2    dxz  x2-y2    tot
    1  0.000  0.000  0.000  0.000  0.210  0.048  0.656  0.048  0.000  0.961
    2  0.000  0.000  0.000  0.000  0.014  0.004  0.010  0.004  0.000  0.033
tot    0.000  0.000  0.000  0.000  0.224  0.052  0.665  0.052  0.000  0.994

band     5 # energy  -19.35560478 # occ.  2.00000000

ion      s     py     pz     px    dxy    dyz    dz2    dxz  x2-y2    tot
    1  0.000  0.000  0.000  0.000  0.000  0.079  0.000  0.079  0.814  0.971
    2  0.000  0.000  0.000  0.000  0.000  0.011  0.000  0.011  0.002  0.024
tot    0.000  0.000  0.000  0.000  0.000  0.089  0.000  0.089  0.816  0.995

band     6 # energy  -18.90480887 # occ.  2.00000000

ion      s     py     pz     px    dxy    dyz    dz2    dxz  x2-y2    tot
    1  0.002  0.000  0.000  0.000  0.003  0.004  0.008  0.004  0.000  0.023
    2  0.000  0.000  0.000  0.000  0.505  0.187  0.095  0.187  0.000  0.973
tot    0.002  0.000  0.000  0.000  0.509  0.191  0.103  0.191  0.000  0.996

band     7 # energy  -18.83572584 # occ.  2.00000000

ion      s     py     pz     px    dxy    dyz    dz2    dxz  x2-y2    tot
    1  0.000  0.000  0.000  0.000  0.000  0.009  0.000  0.009  0.002  0.020
    2  0.000  0.000  0.000  0.000  0.000  0.083  0.000  0.083  0.810  0.976
tot    0.000  0.000  0.000  0.000  0.000  0.092  0.000  0.092  0.812  0.996

band     8 # energy  -18.82115244 # occ.  2.00000000

ion      s     py     pz     px    dxy    dyz    dz2    dxz  x2-y2    tot
    1  0.000  0.000  0.000  0.000  0.018  0.013  0.009  0.013  0.000  0.054
    2  0.000  0.000  0.000  0.000  0.208  0.051  0.632  0.051  0.000  0.942
tot    0.000  0.000  0.000  0.000  0.226  0.065  0.641  0.065  0.000  0.996

band     9 # energy  -18.77251973 # occ.  2.00000000

ion      s     py     pz     px    dxy    dyz    dz2    dxz  x2-y2    tot
    1  0.000  0.000  0.000  0.000  0.029  0.028  0.010  0.028  0.000  0.095
    2  0.000  0.000  0.000  0.000  0.228  0.213  0.247  0.213  0.000  0.902
tot    0.000  0.000  0.000  0.000  0.257  0.241  0.257  0.241  0.000  0.997

band    10 # energy  -18.74879650 # occ.  2.00000000

ion      s     py     pz     px    dxy    dyz    dz2    dxz  x2-y2    tot
    1  0.000  0.000  0.000  0.000  0.000  0.047  0.000  0.047  0.005  0.100
    2  0.000  0.000  0.000  0.000  0.000  0.359  0.000  0.359  0.179  0.897
tot    0.000  0.000  0.000  0.000  0.000  0.406  0.000  0.406  0.184  0.997

band    11 # energy   -4.16704565 # occ.  2.00000000

ion      s     py     pz     px    dxy    dyz    dz2    dxz  x2-y2    tot
    1  0.363  0.007  0.028  0.007  0.005  0.001  0.000  0.001  0.000  0.412
    2  0.263  0.009  0.035  0.009  0.008  0.002  0.000  0.002  0.000  0.327
tot    0.626  0.016  0.064  0.016  0.013  0.003  0.000  0.003  0.000  0.739

band    12 # energy   -3.19673820 # occ.  2.00000000

ion      s     py     pz     px    dxy    dyz    dz2    dxz  x2-y2    tot
    1  0.235  0.011  0.066  0.011  0.008  0.002  0.001  0.002  0.000  0.334
    2  0.318  0.006  0.057  0.006  0.005  0.001  0.001  0.001  0.000  0.396
tot    0.553  0.017  0.123  0.017  0.013  0.003  0.001  0.003  0.000  0.730

band    13 # energy    0.81930422 # occ.  2.00000000

ion      s     py     pz     px    dxy    dyz    dz2    dxz  x2-y2    tot
    1  0.000  0.092  0.072  0.092  0.000  0.000  0.005  0.000  0.000  0.262
    2  0.003  0.088  0.063  0.088  0.000  0.001  0.006  0.001  0.000  0.249
tot    0.003  0.180  0.136  0.180  0.000  0.001  0.011  0.001  0.000  0.511

band    14 # energy    2.75189493 # occ.  2.00000000

ion      s     py     pz     px    dxy    dyz    dz2    dxz  x2-y2    tot
    1  0.000  0.152  0.000  0.152  0.000  0.003  0.000  0.003  0.003  0.314
    2  0.000  0.149  0.000  0.149  0.000  0.003  0.000  0.003  0.003  0.307
tot    0.000  0.302  0.000  0.302  0.000  0.006  0.000  0.006  0.006  0.622

band    15 # energy    7.18066092 # occ.  0.00000000

ion      s     py     pz     px    dxy    dyz    dz2    dxz  x2-y2    tot
    1  0.061  0.000  0.079  0.000  0.037  0.000  0.031  0.000  0.000  0.208
    2  0.073  0.000  0.080  0.000  0.034  0.000  0.029  0.000  0.000  0.216
tot    0.133  0.000  0.159  0.000  0.071  0.000  0.060  0.000  0.000  0.424

band    16 # energy    9.99534675 # occ.  0.00000000

ion      s     py     pz     px    dxy    dyz    dz2    dxz  x2-y2    tot
    1  0.039  0.054  0.045  0.054  0.043  0.001  0.028  0.001  0.000  0.264
    2  0.041  0.046  0.042  0.046  0.042  0.001  0.027  0.001  0.000  0.245
tot    0.080  0.100  0.086  0.100  0.085  0.002  0.055  0.002  0.000  0.510

band    17 # energy   13.56563220 # occ.  0.00000000

ion      s     py     pz     px    dxy    dyz    dz2    dxz  x2-y2    tot
    1  0.049  0.086  0.052  0.086  0.003  0.014  0.008  0.014  0.000  0.312
    2  0.051  0.097  0.039  0.097  0.001  0.008  0.011  0.008  0.000  0.312
tot    0.100  0.183  0.090  0.183  0.004  0.023  0.019  0.023  0.000  0.624

band    18 # energy   14.46059123 # occ.  0.00000000

ion      s     py     pz     px    dxy    dyz    dz2    dxz  x2-y2    tot
    1  0.035  0.005  0.129  0.005  0.018  0.048  0.002  0.048  0.000  0.290
    2  0.028  0.003  0.148  0.003  0.018  0.049  0.001  0.049  0.000  0.299
tot    0.063  0.008  0.277  0.008  0.036  0.096  0.003  0.096  0.000  0.589


 k-point     2 :    0.38157895 0.36842105 0.75000000     weight = 0.01000000

band     1 # energy  -19.53774133 # occ.  2.00000000

ion      s     py     pz     px    dxy    dyz    dz2    dxz  x2-y2    tot
    1  0.000  0.000  0.000  0.000  0.253  0.293  0.040  0.290  0.000  0.877
    2  0.000  0.000  0.000  0.000  0.030  0.040  0.007  0.039  0.000  0.117
tot    0.000  0.000  0.000  0.000  0.283  0.334  0.048  0.329  0.000  0.994

band     2 # energy  -19.46928212 # occ.  2.00000000

ion      s     py     pz     px    dxy    dyz    dz2    dxz  x2-y2    tot
    1  0.000  0.000  0.000  0.000  0.001  0.374  0.000  0.351  0.174  0.901
    2  0.000  0.000  0.000  0.000  0.000  0.045  0.000  0.045  0.004  0.094
tot    0.000  0.000  0.000  0.000  0.001  0.419  0.000  0.396  0.178  0.995

band     3 # energy  -19.44446069 # occ.  2.00000000

ion      s     py     pz     px    dxy    dyz    dz2    dxz  x2-y2    tot
    1  0.000  0.000  0.000  0.000  0.479  0.100  0.272  0.125  0.000  0.977
    2  0.002  0.000  0.000  0.000  0.007  0.002  0.004  0.002  0.000  0.018
tot    0.002  0.000  0.000  0.000  0.487  0.103  0.276  0.127  0.000  0.995

band     4 # energy  -19.36240539 # occ.  2.00000000

ion      s     py     pz     px    dxy    dyz    dz2    dxz  x2-y2    tot
    1  0.000  0.000  0.000  0.000  0.205  0.042  0.644  0.053  0.017  0.961
    2  0.000  0.000  0.000  0.000  0.014  0.006  0.009  0.004  0.000  0.033
tot    0.000  0.000  0.000  0.000  0.219  0.048  0.653  0.056  0.017  0.994

band     5 # energy  -19.35547726 # occ.  2.00000000

ion      s     py     pz     px    dxy    dyz    dz2    dxz  x2-y2    tot
    1  0.000  0.000  0.000  0.000  0.005  0.083  0.012  0.075  0.797  0.971
    2  0.000  0.000  0.000  0.000  0.000  0.010  0.000  0.012  0.002  0.024
tot    0.000  0.000  0.000  0.000  0.005  0.092  0.012  0.087  0.799  0.995

band     6 # energy  -18.90480504 # occ.  2.00000000

ion      s     py     pz     px    dxy    dyz    dz2    dxz  x2-y2    tot
    1  0.002  0.000  0.000  0.000  0.003  0.004  0.008  0.004  0.000  0.023
    2  0.000  0.000  0.000  0.000  0.505  0.177  0.094  0.196  0.000  0.973
tot    0.002  0.000  0.000  0.000  0.509  0.181  0.103  0.200  0.000  0.996

band     7 # energy  -18.83577659 # occ.  2.00000000

ion      s     py     pz     px    dxy    dyz    dz2    dxz  x2-y2    tot
    1  0.000  0.000  0.000  0.000  0.000  0.009  0.000  0.009  0.002  0.020
    2  0.000  0.000  0.000  0.000  0.001  0.090  0.003  0.076  0.806  0.976
tot    0.000  0.000  0.000  0.000  0.001  0.099  0.003  0.085  0.808  0.996

band     8 # energy  -18.82111870 # occ.  2.00000000

ion      s     py     pz     px    dxy    dyz    dz2    dxz  x2-y2    tot
    1  0.000  0.000  0.000  0.000  0.017  0.014  0.009  0.013  0.000  0.053
    2  0.000  0.000  0.000  0.000  0.207  0.049  0.630  0.053  0.004  0.943
tot    0.000  0.000  0.000  0.000  0.225  0.063  0.638  0.066  0.004  0.996

band     9 # energy  -18.77264972 # occ.  2.00000000

ion      s     py     pz     px    dxy    dyz    dz2    dxz  x2-y2    tot
    1  0.000  0.000  0.000  0.000  0.029  0.030  0.010  0.026  0.000  0.095
    2  0.000  0.000  0.000  0.000  0.227  0.204  0.244  0.225  0.001  0.902
tot    0.000  0.000  0.000  0.000  0.255  0.234  0.254  0.251  0.002  0.997

band    10 # energy  -18.74866553 # occ.  2.00000000

ion      s     py     pz     px    dxy    dyz    dz2    dxz  x2-y2    tot
    1  0.000  0.000  0.000  0.000  0.000  0.046  0.000  0.048  0.005  0.100
    2  0.000  0.000  0.000  0.000  0.002  0.371  0.002  0.344  0.178  0.897
tot    0.000  0.000  0.000  0.000  0.002  0.418  0.002  0.392  0.183  0.997

band    11 # energy   -4.16539308 # occ.  2.00000000

ion      s     py     pz     px    dxy    dyz    dz2    dxz  x2-y2    tot
    1  0.363  0.007  0.028  0.006  0.005  0.001  0.000  0.001  0.000  0.412
    2  0.263  0.010  0.035  0.008  0.008  0.001  0.000  0.002  0.000  0.327
tot    0.626  0.017  0.063  0.014  0.013  0.002  0.000  0.003  0.000  0.739

band    12 # energy   -3.19772823 # occ.  2.00000000

ion      s     py     pz     px    dxy    dyz    dz2    dxz  x2-y2    tot
    1  0.235  0.012  0.065  0.010  0.008  0.002  0.001  0.002  0.000  0.334
    2  0.318  0.007  0.057  0.006  0.005  0.001  0.001  0.002  0.000  0.396
tot    0.553  0.018  0.122  0.016  0.013  0.003  0.001  0.004  0.000  0.730

band    13 # energy    0.82060264 # occ.  2.00000000

ion      s     py     pz     px    dxy    dyz    dz2    dxz  x2-y2    tot
    1  0.000  0.091  0.072  0.093  0.000  0.000  0.005  0.000  0.000  0.262
    2  0.003  0.087  0.063  0.089  0.000  0.001  0.006  0.001  0.000  0.249
tot    0.003  0.178  0.136  0.182  0.000  0.001  0.011  0.001  0.000  0.511

band    14 # energy    2.74314942 # occ.  2.00000000

ion      s     py     pz     px    dxy    dyz    dz2    dxz  x2-y2    tot
    1  0.000  0.151  0.000  0.153  0.000  0.003  0.000  0.003  0.003  0.314
    2  0.000  0.148  0.000  0.149  0.000  0.003  0.000  0.003  0.003  0.307
tot    0.000  0.299  0.001  0.303  0.000  0.007  0.000  0.006  0.006  0.621

band    15 # energy    7.19521453 # occ.  0.00000000

ion      s     py     pz     px    dxy    dyz    dz2    dxz  x2-y2    tot
    1  0.060  0.000  0.079  0.001  0.037  0.000  0.031  0.000  0.000  0.209
    2  0.072  0.000  0.080  0.001  0.034  0.000  0.029  0.000  0.000  0.217
tot    0.133  0.000  0.159  0.002  0.071  0.000  0.060  0.000  0.000  0.425

band    16 # energy    9.99665421 # occ.  0.00000000

ion      s     py     pz     px    dxy    dyz    dz2    dxz  x2-y2    tot
    1  0.039  0.054  0.045  0.055  0.043  0.001  0.028  0.001  0.000  0.264
    2  0.041  0.045  0.042  0.046  0.042  0.001  0.027  0.001  0.000  0.245
tot    0.080  0.099  0.087  0.101  0.085  0.002  0.055  0.002  0.000  0.510

band    17 # energy   13.52613497 # occ.  0.00000000

ion      s     py     pz     px    dxy    dyz    dz2    dxz  x2-y2    tot
    1  0.038  0.091  0.046  0.085  0.003  0.006  0.006  0.030  0.007  0.312
    2  0.041  0.077  0.033  0.117  0.001  0.004  0.009  0.019  0.008  0.309
tot    0.080  0.168  0.078  0.202  0.004  0.010  0.014  0.050  0.015  0.621

band    18 # energy   13.61954512 # occ.  0.00000000

ion      s     py     pz     px    dxy    dyz    dz2    dxz  x2-y2    tot
    1  0.012  0.093  0.010  0.124  0.000  0.016  0.002  0.026  0.026  0.309
    2  0.011  0.121  0.012  0.099  0.000  0.013  0.002  0.030  0.025  0.312
tot    0.023  0.214  0.021  0.223  0.001  0.028  0.004  0.056  0.051  0.621


 k-point     3 :    0.38815789 0.36184211 0.75000000     weight = 0.01000000

band     1 # energy  -19.53773617 # occ.  2.00000000

ion      s     py     pz     px    dxy    dyz    dz2    dxz  x2-y2    tot
    1  0.000  0.000  0.000  0.000  0.253  0.294  0.040  0.289  0.000  0.877
    2  0.000  0.000  0.000  0.000  0.030  0.041  0.007  0.038  0.000  0.117
tot    0.000  0.000  0.000  0.000  0.283  0.336  0.048  0.327  0.000  0.994

band     2 # energy  -19.46930973 # occ.  2.00000000

ion      s     py     pz     px    dxy    dyz    dz2    dxz  x2-y2    tot
    1  0.000  0.000  0.000  0.000  0.003  0.384  0.001  0.339  0.173  0.900
    2  0.000  0.000  0.000  0.000  0.001  0.044  0.000  0.045  0.004  0.095
tot    0.000  0.000  0.000  0.000  0.004  0.428  0.001  0.384  0.177  0.995

band     3 # energy  -19.44440756 # occ.  2.00000000

ion      s     py     pz     px    dxy    dyz    dz2    dxz  x2-y2    tot
    1  0.000  0.000  0.000  0.000  0.477  0.089  0.271  0.139  0.001  0.977
    2  0.002  0.000  0.000  0.000  0.007  0.003  0.004  0.002  0.000  0.018
tot    0.002  0.000  0.000  0.000  0.484  0.092  0.275  0.141  0.002  0.995

band     4 # energy  -19.36267065 # occ.  2.00000000

ion      s     py     pz     px    dxy    dyz    dz2    dxz  x2-y2    tot
    1  0.000  0.000  0.000  0.000  0.194  0.038  0.614  0.056  0.060  0.961
    2  0.000  0.000  0.000  0.000  0.013  0.007  0.009  0.003  0.000  0.033
tot    0.000  0.000  0.000  0.000  0.207  0.044  0.622  0.060  0.060  0.994

band     5 # energy  -19.35509653 # occ.  2.00000000

ion      s     py     pz     px    dxy    dyz    dz2    dxz  x2-y2    tot
    1  0.000  0.000  0.000  0.000  0.016  0.086  0.042  0.073  0.754  0.972
    2  0.000  0.000  0.000  0.000  0.001  0.009  0.001  0.012  0.002  0.024
tot    0.000  0.000  0.000  0.000  0.017  0.095  0.043  0.085  0.756  0.995

band     6 # energy  -18.90477560 # occ.  2.00000000

ion      s     py     pz     px    dxy    dyz    dz2    dxz  x2-y2    tot
    1  0.002  0.000  0.000  0.000  0.003  0.004  0.008  0.004  0.000  0.023
    2  0.000  0.000  0.000  0.000  0.504  0.168  0.094  0.206  0.000  0.973
tot    0.002  0.000  0.000  0.000  0.508  0.173  0.103  0.210  0.000  0.996

band     7 # energy  -18.83590804 # occ.  2.00000000

ion      s     py     pz     px    dxy    dyz    dz2    dxz  x2-y2    tot
    1  0.000  0.000  0.000  0.000  0.000  0.009  0.000  0.009  0.002  0.020
    2  0.000  0.000  0.000  0.000  0.002  0.098  0.012  0.069  0.795  0.976
tot    0.000  0.000  0.000  0.000  0.002  0.106  0.012  0.079  0.796  0.996

band     8 # energy  -18.82100924 # occ.  2.00000000

ion      s     py     pz     px    dxy    dyz    dz2    dxz  x2-y2    tot
    1  0.000  0.000  0.000  0.000  0.017  0.014  0.008  0.013  0.000  0.053
    2  0.000  0.000  0.000  0.000  0.204  0.046  0.622  0.054  0.015  0.943
tot    0.000  0.000  0.000  0.000  0.222  0.060  0.631  0.067  0.015  0.996

band     9 # energy  -18.77301623 # occ.  2.00000000

ion      s     py     pz     px    dxy    dyz    dz2    dxz  x2-y2    tot
    1  0.000  0.000  0.000  0.000  0.028  0.032  0.009  0.025  0.000  0.095
    2  0.000  0.000  0.000  0.000  0.224  0.198  0.237  0.237  0.006  0.902
tot    0.000  0.000  0.000  0.000  0.252  0.230  0.247  0.262  0.006  0.997

band    10 # energy  -18.74824788 # occ.  2.00000000

ion      s     py     pz     px    dxy    dyz    dz2    dxz  x2-y2    tot
    1  0.000  0.000  0.000  0.000  0.001  0.046  0.000  0.048  0.005  0.101
    2  0.000  0.000  0.000  0.000  0.006  0.380  0.008  0.328  0.173  0.896
tot    0.000  0.000  0.000  0.000  0.008  0.426  0.009  0.376  0.178  0.997

band    11 # energy   -4.16043606 # occ.  2.00000000

ion      s     py     pz     px    dxy    dyz    dz2    dxz  x2-y2    tot
    1  0.363  0.008  0.028  0.005  0.005  0.001  0.000  0.001  0.000  0.412
    2  0.262  0.011  0.035  0.007  0.008  0.001  0.000  0.002  0.000  0.327
tot    0.625  0.019  0.063  0.013  0.013  0.002  0.000  0.003  0.000  0.739

band    12 # energy   -3.20071109 # occ.  2.00000000

ion      s     py     pz     px    dxy    dyz    dz2    dxz  x2-y2    tot
    1  0.235  0.013  0.065  0.009  0.008  0.001  0.001  0.002  0.000  0.334
    2  0.319  0.007  0.057  0.005  0.005  0.001  0.000  0.002  0.000  0.397
tot    0.554  0.020  0.122  0.014  0.013  0.003  0.001  0.004  0.000  0.730

band    13 # energy    0.82449617 # occ.  2.00000000

ion      s     py     pz     px    dxy    dyz    dz2    dxz  x2-y2    tot
    1  0.000  0.090  0.072  0.094  0.000  0.000  0.005  0.000  0.000  0.262
    2  0.003  0.086  0.063  0.090  0.000  0.001  0.006  0.000  0.000  0.249
tot    0.003  0.176  0.136  0.184  0.000  0.001  0.011  0.001  0.000  0.511

band    14 # energy    2.71732693 # occ.  2.00000000

ion      s     py     pz     px    dxy    dyz    dz2    dxz  x2-y2    tot
    1  0.000  0.148  0.002  0.153  0.000  0.003  0.000  0.003  0.003  0.313
    2  0.000  0.146  0.002  0.149  0.000  0.003  0.000  0.003  0.003  0.306
tot    0.001  0.294  0.003  0.302  0.000  0.007  0.000  0.006  0.006  0.618

band    15 # energy    7.23848028 # occ.  0.00000000

ion      s     py     pz     px    dxy    dyz    dz2    dxz  x2-y2    tot
    1  0.060  0.001  0.078  0.002  0.037  0.000  0.031  0.000  0.000  0.210
    2  0.072  0.001  0.079  0.003  0.034  0.000  0.029  0.000  0.000  0.218
tot    0.132  0.002  0.157  0.006  0.071  0.000  0.060  0.001  0.000  0.428

band    16 # energy   10.00057604 # occ.  0.00000000

ion      s     py     pz     px    dxy    dyz    dz2    dxz  x2-y2    tot
    1  0.039  0.053  0.045  0.056  0.043  0.001  0.028  0.001  0.000  0.264
    2  0.041  0.045  0.042  0.047  0.042  0.001  0.027  0.001  0.000  0.245
tot    0.080  0.098  0.087  0.102  0.085  0.002  0.055  0.002  0.000  0.510

band    17 # energy   13.42078309 # occ.  0.00000000

ion      s     py     pz     px    dxy    dyz    dz2    dxz  x2-y2    tot
    1  0.027  0.087  0.042  0.086  0.004  0.002  0.003  0.044  0.014  0.309
    2  0.030  0.069  0.029  0.118  0.002  0.002  0.005  0.032  0.017  0.304
tot    0.056  0.155  0.071  0.205  0.005  0.004  0.009  0.076  0.032  0.614

band    18 # energy   13.55323059 # occ.  0.00000000

ion      s     py     pz     px    dxy    dyz    dz2    dxz  x2-y2    tot
    1  0.028  0.077  0.022  0.119  0.001  0.008  0.004  0.026  0.018  0.304
    2  0.025  0.109  0.027  0.092  0.001  0.006  0.006  0.032  0.014  0.311
tot    0.053  0.185  0.049  0.211  0.002  0.014  0.010  0.058  0.032  0.615


 k-point     4 :    0.39473684 0.35526316 0.75000000     weight = 0.01000000

band     1 # energy  -19.53777803 # occ.  2.00000000

ion      s     py     pz     px    dxy    dyz    dz2    dxz  x2-y2    tot
    1  0.000  0.000  0.000  0.000  0.253  0.296  0.040  0.288  0.000  0.877
    2  0.000  0.000  0.000  0.000  0.030  0.042  0.007  0.037  0.000  0.117
tot    0.000  0.000  0.000  0.000  0.283  0.338  0.047  0.324  0.000  0.994

band     2 # energy  -19.46945190 # occ.  2.00000000

ion      s     py     pz     px    dxy    dyz    dz2    dxz  x2-y2    tot
    1  0.000  0.000  0.000  0.000  0.007  0.393  0.002  0.327  0.171  0.900
    2  0.000  0.000  0.000  0.000  0.001  0.044  0.000  0.045  0.004  0.095
tot    0.000  0.000  0.000  0.000  0.009  0.437  0.003  0.371  0.175  0.995

band     3 # energy  -19.44434906 # occ.  2.00000000

ion      s     py     pz     px    dxy    dyz    dz2    dxz  x2-y2    tot
    1  0.000  0.000  0.000  0.000  0.473  0.079  0.270  0.153  0.003  0.977
    2  0.002  0.000  0.000  0.000  0.007  0.003  0.004  0.002  0.000  0.018
tot    0.002  0.000  0.000  0.000  0.480  0.082  0.274  0.154  0.003  0.995

band     4 # energy  -19.36308906 # occ.  2.00000000

ion      s     py     pz     px    dxy    dyz    dz2    dxz  x2-y2    tot
    1  0.000  0.000  0.000  0.000  0.179  0.033  0.576  0.059  0.114  0.962
    2  0.000  0.000  0.000  0.000  0.013  0.008  0.008  0.003  0.000  0.033
tot    0.000  0.000  0.000  0.000  0.191  0.041  0.584  0.062  0.114  0.994

band     5 # energy  -19.35459470 # occ.  2.00000000

ion      s     py     pz     px    dxy    dyz    dz2    dxz  x2-y2    tot
    1  0.000  0.000  0.000  0.000  0.030  0.090  0.080  0.072  0.700  0.972
    2  0.000  0.000  0.000  0.000  0.001  0.007  0.001  0.012  0.002  0.023
tot    0.000  0.000  0.000  0.000  0.031  0.097  0.081  0.084  0.701  0.995

band     6 # energy  -18.90476251 # occ.  2.00000000

ion      s     py     pz     px    dxy    dyz    dz2    dxz  x2-y2    tot
    1  0.002  0.000  0.000  0.000  0.003  0.004  0.008  0.004  0.000  0.022
    2  0.000  0.000  0.000  0.000  0.503  0.159  0.094  0.216  0.001  0.973
tot    0.002  0.000  0.000  0.000  0.506  0.164  0.102  0.220  0.001  0.996

band     7 # energy  -18.83619567 # occ.  2.00000000

ion      s     py     pz     px    dxy    dyz    dz2    dxz  x2-y2    tot
    1  0.000  0.000  0.000  0.000  0.000  0.008  0.000  0.009  0.002  0.020
    2  0.000  0.000  0.000  0.000  0.005  0.105  0.025  0.064  0.777  0.976
tot    0.000  0.000  0.000  0.000  0.005  0.114  0.025  0.073  0.778  0.996

band     8 # energy  -18.82086115 # occ.  2.00000000

ion      s     py     pz     px    dxy    dyz    dz2    dxz  x2-y2    tot
    1  0.000  0.000  0.000  0.000  0.017  0.014  0.008  0.013  0.000  0.053
    2  0.000  0.000  0.000  0.000  0.200  0.044  0.611  0.055  0.033  0.943
tot    0.000  0.000  0.000  0.000  0.217  0.058  0.620  0.068  0.033  0.996

band     9 # energy  -18.77362587 # occ.  2.00000000

ion      s     py     pz     px    dxy    dyz    dz2    dxz  x2-y2    tot
    1  0.000  0.000  0.000  0.000  0.027  0.033  0.009  0.024  0.000  0.094
    2  0.000  0.000  0.000  0.000  0.220  0.195  0.226  0.250  0.012  0.903
tot    0.000  0.000  0.000  0.000  0.246  0.228  0.236  0.273  0.012  0.997

band    10 # energy  -18.74767076 # occ.  2.00000000

ion      s     py     pz     px    dxy    dyz    dz2    dxz  x2-y2    tot
    1  0.000  0.000  0.000  0.000  0.003  0.045  0.001  0.048  0.005  0.101
    2  0.000  0.000  0.000  0.000  0.014  0.387  0.017  0.311  0.167  0.896
tot    0.000  0.000  0.000  0.000  0.017  0.431  0.018  0.359  0.172  0.997

band    11 # energy   -4.15218536 # occ.  2.00000000

ion      s     py     pz     px    dxy    dyz    dz2    dxz  x2-y2    tot
    1  0.364  0.009  0.028  0.005  0.005  0.001  0.000  0.001  0.000  0.413
    2  0.261  0.012  0.035  0.006  0.008  0.001  0.000  0.002  0.000  0.326
tot    0.625  0.021  0.063  0.011  0.013  0.002  0.000  0.004  0.000  0.739

band    12 # energy   -3.20572852 # occ.  2.00000000

ion      s     py     pz     px    dxy    dyz    dz2    dxz  x2-y2    tot
    1  0.234  0.014  0.065  0.008  0.008  0.001  0.001  0.002  0.000  0.333
    2  0.320  0.008  0.056  0.005  0.005  0.001  0.000  0.002  0.000  0.398
tot    0.555  0.022  0.121  0.013  0.013  0.002  0.001  0.004  0.000  0.731

band    13 # energy    0.83097636 # occ.  2.00000000

ion      s     py     pz     px    dxy    dyz    dz2    dxz  x2-y2    tot
    1  0.000  0.089  0.073  0.094  0.000  0.000  0.005  0.000  0.000  0.262
    2  0.003  0.085  0.063  0.091  0.000  0.001  0.006  0.000  0.000  0.249
tot    0.003  0.174  0.136  0.186  0.000  0.001  0.011  0.001  0.000  0.511

band    14 # energy    2.67559689 # occ.  2.00000000

ion      s     py     pz     px    dxy    dyz    dz2    dxz  x2-y2    tot
    1  0.001  0.145  0.004  0.152  0.000  0.004  0.001  0.003  0.003  0.310
    2  0.001  0.143  0.004  0.147  0.000  0.003  0.000  0.003  0.003  0.304
tot    0.001  0.288  0.007  0.299  0.000  0.007  0.001  0.005  0.006  0.614

band    15 # energy    7.30930680 # occ.  0.00000000

ion      s     py     pz     px    dxy    dyz    dz2    dxz  x2-y2    tot
    1  0.059  0.003  0.077  0.005  0.037  0.000  0.030  0.000  0.000  0.212
    2  0.071  0.002  0.077  0.006  0.034  0.000  0.029  0.000  0.000  0.219
tot    0.130  0.006  0.154  0.011  0.071  0.000  0.059  0.001  0.000  0.432

band    16 # energy   10.00710473 # occ.  0.00000000

ion      s     py     pz     px    dxy    dyz    dz2    dxz  x2-y2    tot
    1  0.039  0.053  0.045  0.056  0.043  0.001  0.028  0.001  0.000  0.265
    2  0.041  0.045  0.042  0.047  0.042  0.001  0.027  0.001  0.000  0.246
tot    0.080  0.097  0.087  0.104  0.085  0.002  0.055  0.002  0.000  0.510

band    17 # energy   13.27683360 # occ.  0.00000000

ion      s     py     pz     px    dxy    dyz    dz2    dxz  x2-y2    tot
    1  0.022  0.079  0.042  0.086  0.004  0.001  0.002  0.051  0.018  0.305
    2  0.025  0.064  0.031  0.112  0.003  0.001  0.004  0.039  0.021  0.300
tot    0.047  0.143  0.073  0.198  0.007  0.002  0.006  0.090  0.039  0.606

band    18 # energy   13.45369989 # occ.  0.00000000

ion      s     py     pz     px    dxy    dyz    dz2    dxz  x2-y2    tot
    1  0.035  0.067  0.029  0.112  0.002  0.004  0.005  0.028  0.015  0.298
    2  0.031  0.096  0.034  0.092  0.001  0.002  0.007  0.033  0.011  0.308
tot    0.066  0.163  0.063  0.204  0.003  0.007  0.012  0.062  0.026  0.606


 k-point     5 :    0.40131579 0.34868421 0.75000000     weight = 0.01000000

band     1 # energy  -19.53778042 # occ.  2.00000000

ion      s     py     pz     px    dxy    dyz    dz2    dxz  x2-y2    tot
    1  0.000  0.000  0.000  0.000  0.253  0.297  0.040  0.286  0.001  0.877
    2  0.000  0.000  0.000  0.000  0.030  0.043  0.007  0.036  0.000  0.117
tot    0.000  0.000  0.000  0.000  0.283  0.340  0.047  0.322  0.001  0.994

band     2 # energy  -19.46957896 # occ.  2.00000000

ion      s     py     pz     px    dxy    dyz    dz2    dxz  x2-y2    tot
    1  0.000  0.000  0.000  0.000  0.013  0.401  0.004  0.313  0.168  0.900
    2  0.000  0.000  0.000  0.000  0.002  0.044  0.000  0.044  0.004  0.095
tot    0.000  0.000  0.000  0.000  0.015  0.444  0.004  0.358  0.172  0.995

band     3 # energy  -19.44423794 # occ.  2.00000000

ion      s     py     pz     px    dxy    dyz    dz2    dxz  x2-y2    tot
    1  0.000  0.000  0.000  0.000  0.468  0.069  0.268  0.167  0.006  0.978
    2  0.002  0.000  0.000  0.000  0.007  0.003  0.004  0.002  0.000  0.017
tot    0.002  0.000  0.000  0.000  0.475  0.073  0.272  0.168  0.006  0.995

band     4 # energy  -19.36354910 # occ.  2.00000000

ion      s     py     pz     px    dxy    dyz    dz2    dxz  x2-y2    tot
    1  0.000  0.000  0.000  0.000  0.163  0.030  0.540  0.060  0.168  0.962
    2  0.000  0.000  0.000  0.000  0.012  0.009  0.007  0.004  0.000  0.033
tot    0.000  0.000  0.000  0.000  0.176  0.039  0.547  0.064  0.168  0.995

band     5 # energy  -19.35390407 # occ.  2.00000000

ion      s     py     pz     px    dxy    dyz    dz2    dxz  x2-y2    tot
    1  0.000  0.000  0.000  0.000  0.045  0.092  0.117  0.073  0.645  0.972
    2  0.000  0.000  0.000  0.000  0.002  0.006  0.002  0.012  0.001  0.023
tot    0.000  0.000  0.000  0.000  0.046  0.099  0.119  0.084  0.647  0.995

band     6 # energy  -18.90471722 # occ.  2.00000000

ion      s     py     pz     px    dxy    dyz    dz2    dxz  x2-y2    tot
    1  0.002  0.000  0.000  0.000  0.003  0.004  0.008  0.004  0.000  0.022
    2  0.000  0.000  0.000  0.000  0.501  0.151  0.093  0.227  0.001  0.973
tot    0.002  0.000  0.000  0.000  0.504  0.155  0.101  0.231  0.002  0.996

band     7 # energy  -18.83650687 # occ.  2.00000000

ion      s     py     pz     px    dxy    dyz    dz2    dxz  x2-y2    tot
    1  0.000  0.000  0.000  0.000  0.001  0.008  0.000  0.009  0.002  0.020
    2  0.000  0.000  0.000  0.000  0.008  0.113  0.042  0.059  0.754  0.976
tot    0.000  0.000  0.000  0.000  0.009  0.121  0.042  0.068  0.755  0.996

band     8 # energy  -18.82062464 # occ.  2.00000000

ion      s     py     pz     px    dxy    dyz    dz2    dxz  x2-y2    tot
    1  0.000  0.000  0.000  0.000  0.017  0.015  0.008  0.012  0.000  0.052
    2  0.000  0.000  0.000  0.000  0.194  0.041  0.598  0.055  0.056  0.944
tot    0.000  0.000  0.000  0.000  0.211  0.056  0.605  0.068  0.056  0.996

band     9 # energy  -18.77439404 # occ.  2.00000000

ion      s     py     pz     px    dxy    dyz    dz2    dxz  x2-y2    tot
    1  0.000  0.000  0.000  0.000  0.025  0.035  0.009  0.023  0.001  0.093
    2  0.000  0.000  0.000  0.000  0.215  0.194  0.214  0.261  0.019  0.903
tot    0.000  0.000  0.000  0.000  0.240  0.230  0.222  0.284  0.020  0.997

band    10 # energy  -18.74686422 # occ.  2.00000000

ion      s     py     pz     px    dxy    dyz    dz2    dxz  x2-y2    tot
    1  0.000  0.000  0.000  0.000  0.005  0.044  0.001  0.047  0.004  0.102
    2  0.000  0.000  0.000  0.000  0.022  0.390  0.028  0.295  0.160  0.895
tot    0.000  0.000  0.000  0.000  0.027  0.434  0.029  0.342  0.164  0.997

band    11 # energy   -4.14064471 # occ.  2.00000000

ion      s     py     pz     px    dxy    dyz    dz2    dxz  x2-y2    tot
    1  0.365  0.010  0.028  0.004  0.005  0.001  0.000  0.002  0.000  0.414