PROCAR lm decomposed
# of k-points:  120         # of bands:   18         # of ions:    2

 k-point     1 :    0.00000000 0.00000000 0.00000000     weight = 0.00833333

band     1 # energy  -20.71286111 # occ.  2.00000000

ion      s     py     pz     px    dxy    dyz    dz2    dxz  x2-y2    tot
    1  0.000  0.000  0.000  0.000  0.311  0.311  0.000  0.311  0.000  0.932
    2  0.000  0.000  0.000  0.000  0.021  0.021  0.000  0.021  0.000  0.062
tot    0.000  0.000  0.000  0.000  0.331  0.331  0.000  0.331  0.000  0.995

band     2 # energy  -20.67219574 # occ.  2.00000000

ion      s     py     pz     px    dxy    dyz    dz2    dxz  x2-y2    tot
    1  0.000  0.000  0.000  0.000  0.000  0.277  0.000  0.276  0.397  0.950
    2  0.000  0.000  0.000  0.000  0.000  0.014  0.000  0.014  0.015  0.044
tot    0.000  0.000  0.000  0.000  0.000  0.291  0.000  0.291  0.412  0.994

band     3 # energy  -20.67219574 # occ.  2.00000000

ion      s     py     pz     px    dxy    dyz    dz2    dxz  x2-y2    tot
    1  0.000  0.000  0.000  0.000  0.369  0.092  0.397  0.092  0.000  0.950
    2  0.000  0.000  0.000  0.000  0.019  0.005  0.015  0.005  0.000  0.044
tot    0.000  0.000  0.000  0.000  0.388  0.097  0.412  0.097  0.000  0.994

band     4 # energy  -20.61168435 # occ.  2.00000000

ion      s     py     pz     px    dxy    dyz    dz2    dxz  x2-y2    tot
    1  0.000  0.000  0.000  0.000  0.000  0.191  0.000  0.191  0.551  0.932
    2  0.000  0.000  0.000  0.000  0.000  0.016  0.000  0.016  0.031  0.063
tot    0.000  0.000  0.000  0.000  0.000  0.206  0.000  0.206  0.581  0.994

band     5 # energy  -20.61168435 # occ.  2.00000000

ion      s     py     pz     px    dxy    dyz    dz2    dxz  x2-y2    tot
    1  0.000  0.000  0.000  0.000  0.254  0.064  0.551  0.064  0.000  0.932
    2  0.000  0.000  0.000  0.000  0.021  0.005  0.031  0.005  0.000  0.063
tot    0.000  0.000  0.000  0.000  0.275  0.069  0.581  0.069  0.000  0.994

band     6 # energy  -20.22943932 # occ.  2.00000000

ion      s     py     pz     px    dxy    dyz    dz2    dxz  x2-y2    tot
    1  0.000  0.000  0.000  0.000  0.021  0.021  0.000  0.021  0.000  0.063
    2  0.000  0.000  0.000  0.000  0.311  0.311  0.000  0.311  0.000  0.933
tot    0.000  0.000  0.000  0.000  0.332  0.332  0.000  0.332  0.000  0.996

band     7 # energy  -20.18865305 # occ.  2.00000000

ion      s     py     pz     px    dxy    dyz    dz2    dxz  x2-y2    tot
    1  0.000  0.000  0.000  0.000  0.028  0.007  0.023  0.007  0.000  0.066
    2  0.000  0.000  0.000  0.000  0.390  0.097  0.345  0.097  0.000  0.930
tot    0.000  0.000  0.000  0.000  0.418  0.105  0.368  0.105  0.000  0.996

band     8 # energy  -20.18865305 # occ.  2.00000000

ion      s     py     pz     px    dxy    dyz    dz2    dxz  x2-y2    tot
    1  0.000  0.000  0.000  0.000  0.000  0.021  0.000  0.021  0.023  0.066
    2  0.000  0.000  0.000  0.000  0.000  0.292  0.000  0.292  0.345  0.930
tot    0.000  0.000  0.000  0.000  0.000  0.314  0.000  0.314  0.368  0.996

band     9 # energy  -20.14324839 # occ.  2.00000000

ion      s     py     pz     px    dxy    dyz    dz2    dxz  x2-y2    tot
    1  0.000  0.000  0.000  0.000  0.012  0.003  0.024  0.003  0.000  0.042
    2  0.000  0.000  0.000  0.000  0.233  0.058  0.604  0.058  0.000  0.954
tot    0.000  0.000  0.000  0.000  0.245  0.061  0.628  0.061  0.000  0.996

band    10 # energy  -20.14324838 # occ.  2.00000000

ion      s     py     pz     px    dxy    dyz    dz2    dxz  x2-y2    tot
    1  0.000  0.000  0.000  0.000  0.000  0.009  0.000  0.009  0.024  0.042
    2  0.000  0.000  0.000  0.000  0.000  0.175  0.000  0.175  0.604  0.954
tot    0.000  0.000  0.000  0.000  0.000  0.184  0.000  0.184  0.628  0.996

band    11 # energy   -8.25684063 # occ.  2.00000000

ion      s     py     pz     px    dxy    dyz    dz2    dxz  x2-y2    tot
    1  0.322  0.000  0.000  0.000  0.000  0.000  0.000  0.000  0.000  0.322
    2  0.304  0.000  0.000  0.000  0.000  0.000  0.000  0.000  0.000  0.304
tot    0.626  0.000  0.000  0.000  0.000  0.000  0.000  0.000  0.000  0.626

band    12 # energy    3.61118860 # occ.  2.00000000

ion      s     py     pz     px    dxy    dyz    dz2    dxz  x2-y2    tot
    1  0.341  0.022  0.022  0.022  0.002  0.002  0.000  0.002  0.000  0.412
    2  0.336  0.023  0.023  0.023  0.003  0.003  0.000  0.003  0.000  0.413
tot    0.677  0.045  0.045  0.045  0.005  0.005  0.000  0.005  0.000  0.825

band    13 # energy    3.96179336 # occ.  2.00000000

ion      s     py     pz     px    dxy    dyz    dz2    dxz  x2-y2    tot
    1  0.088  0.090  0.090  0.090  0.008  0.008  0.000  0.008  0.000  0.383
    2  0.099  0.068  0.068  0.068  0.011  0.011  0.000  0.011  0.000  0.336
tot    0.187  0.158  0.158  0.158  0.019  0.019  0.000  0.019  0.000  0.719

band    14 # energy    4.21205883 # occ.  1.19851088

ion      s     py     pz     px    dxy    dyz    dz2    dxz  x2-y2    tot
    1  0.000  0.155  0.000  0.155  0.000  0.017  0.000  0.017  0.000  0.344
    2  0.000  0.149  0.000  0.149  0.000  0.017  0.000  0.017  0.000  0.331
tot    0.000  0.303  0.000  0.303  0.000  0.034  0.000  0.034  0.000  0.675

band    15 # energy    4.21205884 # occ.  1.19851074

ion      s     py     pz     px    dxy    dyz    dz2    dxz  x2-y2    tot
    1  0.000  0.052  0.206  0.052  0.023  0.006  0.000  0.006  0.000  0.344
    2  0.000  0.050  0.198  0.050  0.022  0.006  0.000  0.006  0.000  0.331
tot    0.000  0.101  0.404  0.101  0.045  0.011  0.000  0.011  0.000  0.675

band    16 # energy    6.84469395 # occ.  0.00000000

ion      s     py     pz     px    dxy    dyz    dz2    dxz  x2-y2    tot
    1  0.000  0.106  0.000  0.106  0.000  0.022  0.000  0.022  0.000  0.255
    2  0.000  0.107  0.000  0.107  0.000  0.021  0.000  0.021  0.000  0.256
tot    0.000  0.212  0.000  0.212  0.000  0.043  0.000  0.043  0.000  0.511

band    17 # energy    6.84469459 # occ.  0.00000000

ion      s     py     pz     px    dxy    dyz    dz2    dxz  x2-y2    tot
    1  0.000  0.035  0.141  0.035  0.029  0.007  0.000  0.007  0.000  0.255
    2  0.000  0.036  0.142  0.036  0.028  0.007  0.000  0.007  0.000  0.256
tot    0.000  0.071  0.283  0.071  0.057  0.014  0.000  0.014  0.000  0.511

band    18 # energy    6.86791632 # occ.  0.00000000

ion      s     py     pz     px    dxy    dyz    dz2    dxz  x2-y2    tot
    1  0.000  0.063  0.063  0.063  0.017  0.017  0.000  0.017  0.000  0.242
    2  0.001  0.080  0.080  0.080  0.011  0.011  0.000  0.011  0.000  0.272
tot    0.001  0.143  0.143  0.143  0.028  0.028  0.000  0.028  0.000  0.514


 k-point     2 :    0.02631579 0.00000000 0.02631579     weight = 0.00833333

band     1 # energy  -20.71309133 # occ.  2.00000000

ion      s     py     pz     px    dxy    dyz    dz2    dxz  x2-y2    tot
    1  0.000  0.000  0.000  0.000  0.311  0.311  0.000  0.309  0.000  0.932
    2  0.000  0.000  0.000  0.000  0.021  0.021  0.000  0.020  0.000  0.063
tot    0.000  0.000  0.000  0.000  0.332  0.332  0.000  0.330  0.000  0.995

band     2 # energy  -20.67234971 # occ.  2.00000000

ion      s     py     pz     px    dxy    dyz    dz2    dxz  x2-y2    tot
    1  0.000  0.000  0.000  0.000  0.278  0.278  0.296  0.000  0.099  0.950
    2  0.000  0.000  0.000  0.000  0.014  0.014  0.011  0.000  0.004  0.044
tot    0.000  0.000  0.000  0.000  0.292  0.292  0.307  0.000  0.102  0.994

band     3 # energy  -20.67232949 # occ.  2.00000000

ion      s     py     pz     px    dxy    dyz    dz2    dxz  x2-y2    tot
    1  0.000  0.000  0.000  0.000  0.092  0.092  0.099  0.370  0.297  0.950
    2  0.000  0.000  0.000  0.000  0.005  0.005  0.004  0.019  0.011  0.044
tot    0.000  0.000  0.000  0.000  0.097  0.097  0.103  0.389  0.308  0.994

band     4 # energy  -20.61176961 # occ.  2.00000000

ion      s     py     pz     px    dxy    dyz    dz2    dxz  x2-y2    tot
    1  0.000  0.000  0.000  0.000  0.189  0.189  0.415  0.000  0.138  0.932
    2  0.000  0.000  0.000  0.000  0.016  0.016  0.023  0.000  0.008  0.062
tot    0.000  0.000  0.000  0.000  0.205  0.205  0.438  0.000  0.146  0.994

band     5 # energy  -20.61167593 # occ.  2.00000000

ion      s     py     pz     px    dxy    dyz    dz2    dxz  x2-y2    tot
    1  0.000  0.000  0.000  0.000  0.063  0.063  0.138  0.255  0.414  0.932
    2  0.000  0.000  0.000  0.000  0.005  0.005  0.008  0.021  0.023  0.062
tot    0.000  0.000  0.000  0.000  0.068  0.068  0.146  0.275  0.437  0.994

band     6 # energy  -20.22955619 # occ.  2.00000000

ion      s     py     pz     px    dxy    dyz    dz2    dxz  x2-y2    tot
    1  0.000  0.000  0.000  0.000  0.021  0.021  0.000  0.021  0.000  0.063
    2  0.000  0.000  0.000  0.000  0.309  0.309  0.000  0.314  0.000  0.933
tot    0.000  0.000  0.000  0.000  0.330  0.330  0.000  0.335  0.000  0.996

band     7 # energy  -20.18896261 # occ.  2.00000000

ion      s     py     pz     px    dxy    dyz    dz2    dxz  x2-y2    tot
    1  0.000  0.000  0.000  0.000  0.007  0.007  0.006  0.028  0.017  0.065
    2  0.000  0.000  0.000  0.000  0.099  0.099  0.086  0.386  0.259  0.931
tot    0.000  0.000  0.000  0.000  0.106  0.106  0.092  0.414  0.276  0.996

band     8 # energy  -20.18873956 # occ.  2.00000000

ion      s     py     pz     px    dxy    dyz    dz2    dxz  x2-y2    tot
    1  0.000  0.000  0.000  0.000  0.021  0.021  0.017  0.000  0.006  0.066
    2  0.000  0.000  0.000  0.000  0.291  0.291  0.261  0.000  0.087  0.930
tot    0.000  0.000  0.000  0.000  0.312  0.312  0.278  0.000  0.093  0.996

band     9 # energy  -20.14338292 # occ.  2.00000000

ion      s     py     pz     px    dxy    dyz    dz2    dxz  x2-y2    tot
    1  0.000  0.000  0.000  0.000  0.009  0.009  0.018  0.000  0.006  0.042
    2  0.000  0.000  0.000  0.000  0.176  0.176  0.451  0.000  0.150  0.954
tot    0.000  0.000  0.000  0.000  0.185  0.185  0.469  0.000  0.156  0.996

band    10 # energy  -20.14330897 # occ.  2.00000000

ion      s     py     pz     px    dxy    dyz    dz2    dxz  x2-y2    tot
    1  0.000  0.000  0.000  0.000  0.003  0.003  0.006  0.012  0.018  0.043
    2  0.000  0.000  0.000  0.000  0.058  0.058  0.151  0.233  0.453  0.953
tot    0.000  0.000  0.000  0.000  0.061  0.061  0.157  0.246  0.471  0.996

band    11 # energy   -8.24617984 # occ.  2.00000000

ion      s     py     pz     px    dxy    dyz    dz2    dxz  x2-y2    tot
    1  0.321  0.000  0.000  0.000  0.000  0.000  0.000  0.000  0.000  0.322
    2  0.304  0.000  0.000  0.000  0.000  0.000  0.000  0.000  0.000  0.305
tot    0.626  0.000  0.000  0.000  0.000  0.000  0.000  0.000  0.000  0.626

band    12 # energy    3.32292054 # occ.  2.00000000

ion      s     py     pz     px    dxy    dyz    dz2    dxz  x2-y2    tot
    1  0.284  0.089  0.009  0.009  0.001  0.001  0.000  0.010  0.000  0.401
    2  0.283  0.081  0.009  0.009  0.001  0.001  0.000  0.011  0.000  0.396
tot    0.567  0.170  0.018  0.018  0.002  0.002  0.000  0.021  0.000  0.797

band    13 # energy    3.95655675 # occ.  2.00000000

ion      s     py     pz     px    dxy    dyz    dz2    dxz  x2-y2    tot
    1  0.031  0.014  0.146  0.146  0.014  0.014  0.000  0.001  0.000  0.365
    2  0.036  0.009  0.122  0.122  0.017  0.017  0.000  0.002  0.000  0.325
tot    0.067  0.023  0.268  0.268  0.031  0.031  0.000  0.003  0.000  0.689

band    14 # energy    4.16202043 # occ.  1.90442994

ion      s     py     pz     px    dxy    dyz    dz2    dxz  x2-y2    tot
    1  0.000  0.000  0.154  0.154  0.017  0.017  0.000  0.000  0.000  0.341
    2  0.000  0.000  0.148  0.148  0.016  0.016  0.000  0.000  0.000  0.329
tot    0.000  0.000  0.301  0.301  0.033  0.033  0.000  0.000  0.000  0.670

band    15 # energy    4.45682909 # occ.  0.00000000

ion      s     py     pz     px    dxy    dyz    dz2    dxz  x2-y2    tot
    1  0.114  0.217  0.009  0.009  0.001  0.001  0.000  0.021  0.000  0.371
    2  0.116  0.199  0.009  0.009  0.001  0.001  0.000  0.023  0.000  0.357
tot    0.230  0.415  0.018  0.018  0.002  0.002  0.000  0.044  0.000  0.728

band    16 # energy    6.81703274 # occ.  0.00000000

ion      s     py     pz     px    dxy    dyz    dz2    dxz  x2-y2    tot
    1  0.002  0.196  0.003  0.003  0.000  0.000  0.000  0.045  0.000  0.249
    2  0.002  0.214  0.002  0.002  0.001  0.001  0.000  0.038  0.000  0.259
tot    0.003  0.410  0.005  0.005  0.001  0.001  0.000  0.082  0.000  0.507

band    17 # energy    6.90846858 # occ.  0.00000000

ion      s     py     pz     px    dxy    dyz    dz2    dxz  x2-y2    tot
    1  0.000  0.000  0.107  0.107  0.022  0.022  0.000  0.000  0.000  0.257
    2  0.000  0.000  0.108  0.108  0.021  0.021  0.000  0.000  0.000  0.258
tot    0.000  0.000  0.214  0.214  0.043  0.043  0.000  0.000  0.000  0.516

band    18 # energy    6.92150207 # occ.  0.00000000

ion      s     py     pz     px    dxy    dyz    dz2    dxz  x2-y2    tot
    1  0.000  0.004  0.097  0.097  0.024  0.024  0.000  0.001  0.000  0.248
    2  0.001  0.005  0.114  0.114  0.017  0.017  0.000  0.001  0.000  0.269
tot    0.001  0.009  0.211  0.211  0.042  0.042  0.000  0.002  0.000  0.518


 k-point     3 :    0.05263158 0.00000000 0.05263158     weight = 0.00833333

band     1 # energy  -20.71326296 # occ.  2.00000000

ion      s     py     pz     px    dxy    dyz    dz2    dxz  x2-y2    tot
    1  0.000  0.000  0.000  0.000  0.312  0.312  0.000  0.306  0.001  0.931
    2  0.000  0.000  0.000  0.000  0.021  0.021  0.000  0.020  0.000  0.063
tot    0.000  0.000  0.000  0.000  0.333  0.333  0.001  0.326  0.002  0.995

band     2 # energy  -20.67237362 # occ.  2.00000000

ion      s     py     pz     px    dxy    dyz    dz2    dxz  x2-y2    tot
    1  0.000  0.000  0.000  0.000  0.092  0.092  0.099  0.371  0.296  0.950
    2  0.000  0.000  0.000  0.000  0.005  0.005  0.004  0.019  0.011  0.044
tot    0.000  0.000  0.000  0.000  0.097  0.097  0.102  0.391  0.307  0.994

band     3 # energy  -20.67234937 # occ.  2.00000000

ion      s     py     pz     px    dxy    dyz    dz2    dxz  x2-y2    tot
    1  0.000  0.000  0.000  0.000  0.280  0.280  0.292  0.000  0.097  0.950
    2  0.000  0.000  0.000  0.000  0.015  0.015  0.011  0.000  0.004  0.045
tot    0.000  0.000  0.000  0.000  0.295  0.295  0.303  0.000  0.101  0.995

band     4 # energy  -20.61159687 # occ.  2.00000000

ion      s     py     pz     px    dxy    dyz    dz2    dxz  x2-y2    tot
    1  0.000  0.000  0.000  0.000  0.186  0.186  0.419  0.000  0.140  0.932
    2  0.000  0.000  0.000  0.000  0.016  0.016  0.023  0.000  0.008  0.062
tot    0.000  0.000  0.000  0.000  0.202  0.202  0.442  0.000  0.147  0.994

band     5 # energy  -20.61134389 # occ.  2.00000000

ion      s     py     pz     px    dxy    dyz    dz2    dxz  x2-y2    tot
    1  0.000  0.000  0.000  0.000  0.062  0.062  0.138  0.257  0.414  0.934
    2  0.000  0.000  0.000  0.000  0.005  0.005  0.007  0.020  0.022  0.061
tot    0.000  0.000  0.000  0.000  0.067  0.067  0.146  0.277  0.437  0.994

band     6 # energy  -20.22945430 # occ.  2.00000000

ion      s     py     pz     px    dxy    dyz    dz2    dxz  x2-y2    tot
    1  0.000  0.000  0.000  0.000  0.021  0.021  0.000  0.021  0.000  0.063
    2  0.000  0.000  0.000  0.000  0.302  0.302  0.001  0.325  0.002  0.933
tot    0.000  0.000  0.000  0.000  0.323  0.323  0.001  0.346  0.002  0.996

band     7 # energy  -20.18950422 # occ.  2.00000000

ion      s     py     pz     px    dxy    dyz    dz2    dxz  x2-y2    tot
    1  0.000  0.000  0.000  0.000  0.008  0.008  0.006  0.026  0.017  0.064
    2  0.000  0.000  0.000  0.000  0.105  0.105  0.087  0.375  0.261  0.932
tot    0.000  0.000  0.000  0.000  0.113  0.113  0.092  0.400  0.277  0.996

band     8 # energy  -20.18856685 # occ.  2.00000000

ion      s     py     pz     px    dxy    dyz    dz2    dxz  x2-y2    tot
    1  0.000  0.000  0.000  0.000  0.021  0.021  0.018  0.000  0.006  0.066
    2  0.000  0.000  0.000  0.000  0.286  0.286  0.268  0.000  0.089  0.930
tot    0.000  0.000  0.000  0.000  0.307  0.307  0.286  0.000  0.095  0.996

band     9 # energy  -20.14339061 # occ.  2.00000000

ion      s     py     pz     px    dxy    dyz    dz2    dxz  x2-y2    tot
    1  0.000  0.000  0.000  0.000  0.009  0.009  0.017  0.000  0.006  0.042
    2  0.000  0.000  0.000  0.000  0.180  0.180  0.445  0.000  0.148  0.954
tot    0.000  0.000  0.000  0.000  0.190  0.190  0.462  0.000  0.154  0.996

band    10 # energy  -20.14319998 # occ.  2.00000000

ion      s     py     pz     px    dxy    dyz    dz2    dxz  x2-y2    tot
    1  0.000  0.000  0.000  0.000  0.003  0.003  0.006  0.013  0.018  0.044
    2  0.000  0.000  0.000  0.000  0.059  0.059  0.150  0.235  0.450  0.952
tot    0.000  0.000  0.000  0.000  0.062  0.062  0.156  0.248  0.468  0.996

band    11 # energy   -8.21414367 # occ.  2.00000000

ion      s     py     pz     px    dxy    dyz    dz2    dxz  x2-y2    tot
    1  0.321  0.001  0.000  0.000  0.000  0.000  0.000  0.000  0.000  0.322
    2  0.304  0.001  0.000  0.000  0.000  0.000  0.000  0.000  0.000  0.305
tot    0.625  0.001  0.000  0.000  0.000  0.000  0.000  0.000  0.000  0.627

band    12 # energy    2.87015304 # occ.  2.00000000

ion      s     py     pz     px    dxy    dyz    dz2    dxz  x2-y2    tot
    1  0.262  0.111  0.004  0.004  0.000  0.000  0.000  0.014  0.000  0.395
    2  0.263  0.101  0.004  0.004  0.000  0.000  0.000  0.015  0.000  0.388
tot    0.525  0.212  0.008  0.008  0.001  0.001  0.000  0.028  0.000  0.783

band    13 # energy    3.84073991 # occ.  2.00000000

ion      s     py     pz     px    dxy    dyz    dz2    dxz  x2-y2    tot
    1  0.010  0.003  0.154  0.154  0.014  0.014  0.000  0.000  0.000  0.352
    2  0.013  0.003  0.133  0.133  0.017  0.017  0.000  0.001  0.000  0.316
tot    0.023  0.006  0.287  0.287  0.032  0.032  0.000  0.001  0.000  0.668

band    14 # energy    4.02511577 # occ.  1.99999997

ion      s     py     pz     px    dxy    dyz    dz2    dxz  x2-y2    tot
    1  0.000  0.000  0.151  0.151  0.016  0.016  0.000  0.000  0.000  0.334
    2  0.000  0.000  0.146  0.146  0.016  0.016  0.000  0.000  0.000  0.323
tot    0.000  0.000  0.297  0.297  0.032  0.032  0.000  0.000  0.000  0.657

band    15 # energy    4.88831246 # occ.  0.00000000

ion      s     py     pz     px    dxy    dyz    dz2    dxz  x2-y2    tot
    1  0.155  0.207  0.001  0.001  0.000  0.000  0.000  0.018  0.000  0.383
    2  0.159  0.185  0.002  0.002  0.000  0.000  0.000  0.019  0.000  0.368
tot    0.314  0.391  0.003  0.003  0.000  0.000  0.000  0.037  0.000  0.751

band    16 # energy    6.72432110 # occ.  0.00000000

ion      s     py     pz     px    dxy    dyz    dz2    dxz  x2-y2    tot
    1  0.006  0.189  0.001  0.001  0.000  0.000  0.000  0.045  0.000  0.242
    2  0.006  0.211  0.000  0.000  0.000  0.000  0.000  0.037  0.000  0.255
tot    0.012  0.400  0.001  0.001  0.000  0.000  0.000  0.082  0.001  0.497

band    17 # energy    7.08653204 # occ.  0.00000000

ion      s     py     pz     px    dxy    dyz    dz2    dxz  x2-y2    tot
    1  0.000  0.000  0.109  0.109  0.023  0.023  0.000  0.000  0.000  0.264
    2  0.000  0.000  0.110  0.110  0.022  0.022  0.000  0.000  0.000  0.265
tot    0.000  0.000  0.219  0.219  0.045  0.045  0.000  0.000  0.000  0.529

band    18 # energy    7.08742859 # occ.  0.00000000

ion      s     py     pz     px    dxy    dyz    dz2    dxz  x2-y2    tot
    1  0.000  0.001  0.102  0.102  0.025  0.025  0.000  0.000  0.000  0.256
    2  0.001  0.001  0.116  0.116  0.019  0.019  0.000  0.000  0.000  0.273
tot    0.002  0.002  0.218  0.218  0.044  0.044  0.000  0.001  0.000  0.529


 k-point     4 :    0.07894737 0.00000000 0.07894737     weight = 0.00833333

band     1 # energy  -20.71354986 # occ.  2.00000000

ion      s     py     pz     px    dxy    dyz    dz2    dxz  x2-y2    tot
    1  0.000  0.000  0.000  0.000  0.313  0.313  0.001  0.302  0.003  0.931
    2  0.000  0.000  0.000  0.000  0.021  0.021  0.000  0.019  0.001  0.064
tot    0.000  0.000  0.000  0.000  0.334  0.334  0.001  0.321  0.003  0.995

band     2 # energy  -20.67243496 # occ.  2.00000000

ion      s     py     pz     px    dxy    dyz    dz2    dxz  x2-y2    tot
    1  0.000  0.000  0.000  0.000  0.092  0.092  0.098  0.374  0.293  0.950
    2  0.000  0.000  0.000  0.000  0.005  0.005  0.004  0.019  0.011  0.045
tot    0.000  0.000  0.000  0.000  0.097  0.097  0.101  0.394  0.304  0.994

band     3 # energy  -20.67235687 # occ.  2.00000000

ion      s     py     pz     px    dxy    dyz    dz2    dxz  x2-y2    tot
    1  0.000  0.000  0.000  0.000  0.284  0.284  0.286  0.000  0.095  0.949
    2  0.000  0.000  0.000  0.000  0.016  0.016  0.010  0.000  0.003  0.045
tot    0.000  0.000  0.000  0.000  0.299  0.299  0.296  0.000  0.099  0.995

band     4 # energy  -20.61131223 # occ.  2.00000000

ion      s     py     pz     px    dxy    dyz    dz2    dxz  x2-y2    tot
    1  0.000  0.000  0.000  0.000  0.182  0.182  0.427  0.000  0.142  0.933
    2  0.000  0.000  0.000  0.000  0.016  0.016  0.023  0.000  0.008  0.061
tot    0.000  0.000  0.000  0.000  0.198  0.198  0.449  0.000  0.150  0.994

band     5 # energy  -20.61078300 # occ.  2.00000000

ion      s     py     pz     px    dxy    dyz    dz2    dxz  x2-y2    tot
    1  0.000  0.000  0.000  0.000  0.060  0.060  0.139  0.260  0.416  0.936
    2  0.000  0.000  0.000  0.000  0.005  0.005  0.007  0.019  0.021  0.058
tot    0.000  0.000  0.000  0.000  0.066  0.066  0.146  0.280  0.438  0.994

band     6 # energy  -20.22932182 # occ.  2.00000000

ion      s     py     pz     px    dxy    dyz    dz2    dxz  x2-y2    tot
    1  0.000  0.000  0.000  0.000  0.021  0.021  0.000  0.021  0.000  0.063
    2  0.000  0.000  0.000  0.000  0.291  0.291  0.001  0.345  0.004  0.933
tot    0.000  0.000  0.000  0.000  0.312  0.312  0.001  0.366  0.004  0.996

band     7 # energy  -20.19032446 # occ.  2.00000000

ion      s     py     pz     px    dxy    dyz    dz2    dxz  x2-y2    tot
    1  0.000  0.000  0.000  0.000  0.008  0.008  0.005  0.023  0.016  0.061
    2  0.000  0.000  0.000  0.000  0.115  0.115  0.088  0.355  0.263  0.935
tot    0.000  0.000  0.000  0.000  0.123  0.123  0.093  0.378  0.279  0.996

band     8 # energy  -20.18829026 # occ.  2.00000000

ion      s     py     pz     px    dxy    dyz    dz2    dxz  x2-y2    tot
    1  0.000  0.000  0.000  0.000  0.021  0.021  0.018  0.000  0.006  0.066
    2  0.000  0.000  0.000  0.000  0.278  0.278  0.280  0.000  0.093  0.930
tot    0.000  0.000  0.000  0.000  0.299  0.299  0.298  0.000  0.099  0.996

band     9 # energy  -20.14337756 # occ.  2.00000000

ion      s     py     pz     px    dxy    dyz    dz2    dxz  x2-y2    tot
    1  0.000  0.000  0.000  0.000  0.010  0.010  0.016  0.000  0.005  0.042
    2  0.000  0.000  0.000  0.000  0.188  0.188  0.433  0.000  0.144  0.954
tot    0.000  0.000  0.000  0.000  0.198  0.198  0.449  0.000  0.150  0.996

band    10 # energy  -20.14305371 # occ.  2.00000000

ion      s     py     pz     px    dxy    dyz    dz2    dxz  x2-y2    tot
    1  0.000  0.000  0.000  0.000  0.003  0.003  0.006  0.014  0.018  0.045
    2  0.000  0.000  0.000  0.000  0.060  0.060  0.149  0.236  0.446  0.951
tot    0.000  0.000  0.000  0.000  0.063  0.063  0.155  0.250  0.465  0.996

band    11 # energy   -8.16080223 # occ.  2.00000000

ion      s     py     pz     px    dxy    dyz    dz2    dxz  x2-y2    tot
    1  0.321  0.001  0.000  0.000  0.000  0.000  0.000  0.000  0.000  0.323
    2  0.303  0.001  0.000  0.000  0.000  0.000  0.000  0.000  0.000  0.305
tot    0.624  0.003  0.000  0.000  0.000  0.000  0.000  0.000  0.000  0.628

band    12 # energy    2.39710859 # occ.  2.00000000

ion      s     py     pz     px    dxy    dyz    dz2    dxz  x2-y2    tot
    1  0.256  0.115  0.002  0.002  0.000  0.000  0.000  0.015  0.000  0.391
    2  0.257  0.105  0.003  0.003  0.000  0.000  0.000  0.016  0.000  0.385
tot    0.513  0.221  0.005  0.005  0.000  0.000  0.000  0.031  0.000  0.776

band    13 # energy    3.66135423 # occ.  2.00000000

ion      s     py     pz     px    dxy    dyz    dz2    dxz  x2-y2    tot
    1  0.005  0.002  0.154  0.154  0.014  0.014  0.000  0.000  0.000  0.342
    2  0.007  0.002  0.134  0.134  0.016  0.016  0.000  0.000  0.000  0.310
tot    0.012  0.003  0.288  0.288  0.030  0.030  0.000  0.001  0.000  0.652

band    14 # energy    3.82954510 # occ.  2.00000000

ion      s     py     pz     px    dxy    dyz    dz2    dxz  x2-y2    tot
    1  0.000  0.000  0.148  0.148  0.015  0.015  0.000  0.000  0.000  0.326
    2  0.000  0.000  0.143  0.143  0.014  0.014  0.000  0.000  0.000  0.316
tot    0.000  0.000  0.292  0.292  0.029  0.029  0.000  0.000  0.000  0.642

band    15 # energy    5.33396845 # occ.  0.00000000

ion      s     py     pz     px    dxy    dyz    dz2    dxz  x2-y2    tot
    1  0.165  0.208  0.001  0.001  0.000  0.000  0.000  0.014  0.000  0.388
    2  0.170  0.180  0.001  0.001  0.000  0.000  0.000  0.017  0.001  0.369
tot    0.334  0.387  0.002  0.002  0.000  0.000  0.000  0.031  0.001  0.758

band    16 # energy    6.58567199 # occ.  0.00000000

ion      s     py     pz     px    dxy    dyz    dz2    dxz  x2-y2    tot
    1  0.013  0.175  0.000  0.000  0.000  0.000  0.000  0.044  0.001  0.233
    2  0.011  0.202  0.000  0.000  0.000  0.000  0.000  0.036  0.001  0.250
tot    0.024  0.377  0.000  0.000  0.000  0.000  0.001  0.079  0.002  0.484

band    17 # energy    7.33773394 # occ.  0.00000000

ion      s     py     pz     px    dxy    dyz    dz2    dxz  x2-y2    tot
    1  0.000  0.001  0.105  0.105  0.026  0.026  0.000  0.000  0.000  0.265
    2  0.001  0.000  0.118  0.118  0.020  0.020  0.000  0.000  0.000  0.278
tot    0.002  0.002  0.223  0.223  0.047  0.047  0.000  0.000  0.000  0.544

band    18 # energy    7.35044461 # occ.  0.00000000

ion      s     py     pz     px    dxy    dyz    dz2    dxz  x2-y2    tot
    1  0.000  0.000  0.112  0.112  0.024  0.024  0.000  0.000  0.000  0.273
    2  0.000  0.000  0.113  0.113  0.023  0.023  0.000  0.000  0.000  0.272
tot    0.000  0.000  0.225  0.225  0.047  0.047  0.000  0.000  0.000  0.545


 k-point     5 :    0.10526316 0.00000000 0.10526316     weight = 0.00833333

band     1 # energy  -20.71384612 # occ.  2.00000000

ion      s     py     pz     px    dxy    dyz    dz2    dxz  x2-y2    tot
    1  0.000  0.000  0.000  0.000  0.314  0.314  0.002  0.295  0.005  0.930
    2  0.000  0.000  0.000  0.000  0.022  0.022  0.000  0.019  0.001  0.065
tot    0.000  0.000  0.000  0.000  0.336  0.336  0.002  0.314  0.006  0.995

band     2 # energy  -20.67243348 # occ.  2.00000000

ion      s     py     pz     px    dxy    dyz    dz2    dxz  x2-y2    tot
    1  0.000  0.000  0.000  0.000  0.092  0.092  0.097  0.378  0.290  0.949
    2  0.000  0.000  0.000  0.000  0.005  0.005  0.004  0.019  0.011  0.045
tot    0.000  0.000  0.000  0.000  0.097  0.097  0.100  0.398  0.301  0.994

band     3 # energy  -20.67231781 # occ.  2.00000000

ion      s     py     pz     px    dxy    dyz    dz2    dxz  x2-y2    tot
    1  0.000  0.000  0.000  0.000  0.289  0.289  0.278  0.000  0.093  0.949
    2  0.000  0.000  0.000  0.000  0.016  0.016  0.009  0.000  0.003  0.046
tot    0.000  0.000  0.000  0.000  0.306  0.306  0.287  0.000  0.096  0.995

band     4 # energy  -20.61084298 # occ.  2.00000000

ion      s     py     pz     px    dxy    dyz    dz2    dxz  x2-y2    tot
    1  0.000  0.000  0.000  0.000  0.176  0.176  0.436  0.000  0.145  0.934
    2  0.000  0.000  0.000  0.000  0.015  0.015  0.022  0.000  0.007  0.060
tot    0.000  0.000  0.000  0.000  0.192  0.192  0.458  0.000  0.153  0.994

band     5 # energy  -20.60998605 # occ.  2.00000000

ion      s     py     pz     px    dxy    dyz    dz2    dxz  x2-y2    tot
    1  0.000  0.000  0.000  0.000  0.058  0.058  0.139  0.265  0.418  0.939
    2  0.000  0.000  0.000  0.000  0.005  0.005  0.007  0.018  0.020  0.055
tot    0.000  0.000  0.000  0.000  0.063  0.063  0.146  0.283  0.438  0.994

band     6 # energy  -20.22912408 # occ.  2.00000000

ion      s     py     pz     px    dxy    dyz    dz2    dxz  x2-y2    tot
    1  0.000  0.000  0.000  0.000  0.020  0.020  0.000  0.021  0.000  0.062
    2  0.000  0.000  0.000  0.000  0.275  0.275  0.003  0.372  0.008  0.933
tot    0.000  0.000  0.000  0.000  0.295  0.295  0.003  0.394  0.008  0.996

band     7 # energy  -20.19121311 # occ.  2.00000000

ion      s     py     pz     px    dxy    dyz    dz2    dxz  x2-y2    tot
    1  0.000  0.000  0.000  0.000  0.009  0.009  0.005  0.020  0.015  0.058
    2  0.000  0.000  0.000  0.000  0.129  0.129  0.088  0.328  0.265  0.938
tot    0.000  0.000  0.000  0.000  0.138  0.138  0.093  0.347  0.279  0.996

band     8 # energy  -20.18790011 # occ.  2.00000000

ion      s     py     pz     px    dxy    dyz    dz2    dxz  x2-y2    tot
    1  0.000  0.000  0.000  0.000  0.021  0.021  0.018  0.000  0.006  0.065
    2  0.000  0.000  0.000  0.000  0.267  0.267  0.298  0.000  0.099  0.931
tot    0.000  0.000  0.000  0.000  0.287  0.287  0.316  0.000  0.105  0.996

band     9 # energy  -20.14326921 # occ.  2.00000000

ion      s     py     pz     px    dxy    dyz    dz2    dxz  x2-y2    tot
    1  0.000  0.000  0.000  0.000  0.011  0.011  0.015  0.000  0.005  0.043
    2  0.000  0.000  0.000  0.000  0.199  0.199  0.417  0.000  0.139  0.953
tot    0.000  0.000  0.000  0.000  0.210  0.210  0.432  0.000  0.144  0.996

band    10 # energy  -20.14286436 # occ.  2.00000000

ion      s     py     pz     px    dxy    dyz    dz2    dxz  x2-y2    tot
    1  0.000  0.000  0.000  0.000  0.004  0.004  0.006  0.015  0.018  0.047
    2  0.000  0.000  0.000  0.000  0.061  0.061  0.147  0.238  0.442  0.949
tot    0.000  0.000  0.000  0.000  0.065  0.065  0.153  0.253  0.460  0.996

band    11 # energy   -8.08626489 # occ.  2.00000000

ion      s     py     pz     px    dxy    dyz    dz2    dxz  x2-y2    tot
    1  0.321  0.002  0.000  0.000  0.000  0.000  0.000  0.000  0.000  0.323