 vasp.6.3.2 27Jun22 (build Nov 28 2025 11:56:12) complex                         
 executed on             LinuxGNU date 2025.12.08  18:58:46
 running    2 mpi-ranks, with    1 threads/rank
 distrk:  each k-point on    2 cores,    1 groups
 distr:  one band on NCORE=   1 cores,    2 groups


--------------------------------------------------------------------------------------------------------


 INCAR:
   ISTART = 1            (Read existing wavefunction, if there)
   ISPIN = 1            (Non-Spin polarised DFT)
   LREAL = Auto       (Projection operators: automatic)
   ENCUT = 400        (Cut-off energy for plane wave basis set, in eV)
   PREC = Accurate   (Precision level: Normal or Accurate, set Accurate when perform structure lattice relaxation calculation)
   LWAVE = .TRUE.        (Write WAVECAR or not)
   LCHARG = .TRUE.        (Write CHGCAR or not)
   ADDGRID = .TRUE.        (Increase grid, helps GGA convergence)
   ISMEAR = 0            (Gaussian smearing, metals:1)
   SIGMA = 0.05         (Smearing value in eV, metals:0.2)
   NELM = 90           (Max electronic SCF steps)
   NELMIN = 6            (Min electronic SCF steps)
   EDIFF = 1E-08        (SCF energy convergence, in eV)
   NSW = 100          (Max ionic steps)
   IBRION = 2            (Algorithm: 0-MD, 1-Quasi-New, 2-CG)
   ISIF = 2            (Stress/relaxation: 2-Ions, 3-Shape/Ions/V, 4-Shape/Ions)
   EDIFFG = -2E-02        (Ionic convergence, eV/AA)

 POTCAR:    PAW_PBE Ge_d 03Jul2007                
 POTCAR:    PAW_PBE Ga_d 06Jul2010                
 POTCAR:    PAW_PBE Ge_d 03Jul2007                
 POTCAR:    PAW_PBE Ge_d 03Jul2007                
   VRHFIN =Ge: 3d4s4p                                                                               
   LEXCH  = PE                                                                                      
   EATOM  =  2596.2402 eV,  190.8183 Ry                                                             
                                                                                                    
   TITEL  = PAW_PBE Ge_d 03Jul2007                                                                  
   LULTRA =        F    use ultrasoft PP ?                                                          
   IUNSCR =        1    unscreen: 0-lin 1-nonlin 2-no                                               
   RPACOR =    2.000    partial core radius                                                         
   POMASS =   72.610; ZVAL   =   14.000    mass and valenz                                          
   RCORE  =    2.300    outmost cutoff radius                                                       
   RWIGS  =    2.300; RWIGS  =    1.217    wigner-seitz radius (au A)                               
   ENMAX  =  310.294; ENMIN  =  232.720 eV                                                          
   ICORE  =        3    local potential                                                             
   LCOR   =        T    correct aug charges                                                         
   LPAW   =        T    paw PP                                                                      
   EAUG   =  531.356                                                                                
   DEXC   =    0.000                                                                                
   RMAX   =    2.342    core radius for proj-oper                                                   
   RAUG   =    1.300    factor for augmentation sphere                                              
   RDEP   =    2.318    radius for radial grids                                                     
   RDEPT  =    1.783    core radius for aug-charge                                                  
                                                                                                    
   Atomic configuration                                                                             
    9 entries                                                                                       
     n  l   j            E        occ.                                                              
     1  0  0.50    -10959.8463   2.0000                                                             
     2  0  0.50     -1371.6056   2.0000                                                             
     2  1  1.50     -1198.4791   6.0000                                                             
     3  0  0.50      -168.4733   2.0000                                                             
     3  1  1.50      -115.6019   6.0000                                                             
     3  2  2.50       -29.3106  10.0000                                                             
     4  0  0.50       -11.7309   2.0000                                                             
     4  1  0.50        -3.8952   2.0000                                                             
     4  3  2.50        -4.0817   0.0000                                                             
   Description                                                                                      
     l       E           TYP  RCUT    TYP  RCUT                                                     
     2    -29.3105938     23  2.200                                                                 
     2    -13.6058260     23  2.200                                                                 
     0    -11.7309493     23  2.300                                                                 
     0     -7.4578696     23  2.300                                                                 
     1     -3.8952261     23  2.300                                                                 
     1      6.1178114     23  2.300                                                                 
     3     -1.3605826     23  2.300                                                                 
  local pseudopotential read in
  partial core-charges read in
  partial kinetic energy density read in
  atomic valenz-charges read in
  non local Contribution for L=           2  read in
    real space projection operators read in
  non local Contribution for L=           2  read in
    real space projection operators read in
  non local Contribution for L=           0  read in
    real space projection operators read in
  non local Contribution for L=           0  read in
    real space projection operators read in
  non local Contribution for L=           1  read in
    real space projection operators read in
  non local Contribution for L=           1  read in
    real space projection operators read in
    PAW grid and wavefunctions read in

   number of l-projection  operators is LMAX  =           6
   number of lm-projection operators is LMMAX =          18

 POTCAR:    PAW_PBE Ga_d 06Jul2010                
   VRHFIN =Ga: s2p1                                                                                 
   LEXCH  = PE                                                                                      
   EATOM  =  2148.8298 eV,  157.9345 Ry                                                             
                                                                                                    
   TITEL  = PAW_PBE Ga_d 06Jul2010                                                                  
   LULTRA =        F    use ultrasoft PP ?                                                          
   IUNSCR =        1    unscreen: 0-lin 1-nonlin 2-no                                               
   RPACOR =    1.700    partial core radius                                                         
   POMASS =   69.723; ZVAL   =   13.000    mass and valenz                                          
   RCORE  =    2.300    outmost cutoff radius                                                       
   RWIGS  =    2.300; RWIGS  =    1.217    wigner-seitz radius (au A)                               
   ENMAX  =  282.691; ENMIN  =  212.018 eV                                                          
   ICORE  =        3    local potential                                                             
   LCOR   =        T    correct aug charges                                                         
   LPAW   =        T    paw PP                                                                      
   EAUG   =  490.690                                                                                
   DEXC   =    0.000                                                                                
   RMAX   =    2.341    core radius for proj-oper                                                   
   RAUG   =    1.300    factor for augmentation sphere                                              
   RDEP   =    2.413    radius for radial grids                                                     
   RDEPT  =    1.856    core radius for aug-charge                                                  
                                                                                                    
   Atomic configuration                                                                             
    9 entries                                                                                       
     n  l   j            E        occ.                                                              
     1  0  0.50    -10228.7831   2.0000                                                             
     2  0  0.50     -1262.1604   2.0000                                                             
     2  1  1.50     -1098.6333   6.0000                                                             
     3  0  0.50      -148.1110   2.0000                                                             
     3  1  1.50       -98.8436   6.0000                                                             
     3  2  2.50       -19.1549  10.0000                                                             
     4  0  0.50        -8.9483   2.0000                                                             
     4  1  0.50        -2.5791   1.0000                                                             
     4  3  2.50        -2.7416   0.0000                                                             
   Description                                                                                      
     l       E           TYP  RCUT    TYP  RCUT                                                     
     2    -19.1549037     23  2.300                                                                 
     2     -5.4423304     23  2.300                                                                 
     0     -8.9483111     23  2.300                                                                 
     0     68.0291300     23  2.300                                                                 
     1     -2.5790802     23  2.100                                                                 
     1     81.6349560     23  2.300                                                                 
     3      6.8029130     23  2.300                                                                 
  local pseudopotential read in
  partial core-charges read in
  partial kinetic energy density read in
  atomic valenz-charges read in
  non local Contribution for L=           2  read in
    real space projection operators read in
  non local Contribution for L=           2  read in
    real space projection operators read in
  non local Contribution for L=           0  read in
    real space projection operators read in
  non local Contribution for L=           0  read in
    real space projection operators read in
  non local Contribution for L=           1  read in
    real space projection operators read in
  non local Contribution for L=           1  read in
    real space projection operators read in
    PAW grid and wavefunctions read in

   number of l-projection  operators is LMAX  =           6
   number of lm-projection operators is LMMAX =          18

 POTCAR:    PAW_PBE Ge_d 03Jul2007                
   VRHFIN =Ge: 3d4s4p                                                                               
   LEXCH  = PE                                                                                      
   EATOM  =  2596.2402 eV,  190.8183 Ry                                                             
                                                                                                    
   TITEL  = PAW_PBE Ge_d 03Jul2007                                                                  
   LULTRA =        F    use ultrasoft PP ?                                                          
   IUNSCR =        1    unscreen: 0-lin 1-nonlin 2-no                                               
   RPACOR =    2.000    partial core radius                                                         
   POMASS =   72.610; ZVAL   =   14.000    mass and valenz                                          
   RCORE  =    2.300    outmost cutoff radius                                                       
   RWIGS  =    2.300; RWIGS  =    1.217    wigner-seitz radius (au A)                               
   ENMAX  =  310.294; ENMIN  =  232.720 eV                                                          
   ICORE  =        3    local potential                                                             
   LCOR   =        T    correct aug charges                                                         
   LPAW   =        T    paw PP                                                                      
   EAUG   =  531.356                                                                                
   DEXC   =    0.000                                                                                
   RMAX   =    2.342    core radius for proj-oper                                                   
   RAUG   =    1.300    factor for augmentation sphere                                              
   RDEP   =    2.318    radius for radial grids                                                     
   RDEPT  =    1.783    core radius for aug-charge                                                  
                                                                                                    
   Atomic configuration                                                                             
    9 entries                                                                                       
     n  l   j            E        occ.                                                              
     1  0  0.50    -10959.8463   2.0000                                                             
     2  0  0.50     -1371.6056   2.0000                                                             
     2  1  1.50     -1198.4791   6.0000                                                             
     3  0  0.50      -168.4733   2.0000                                                             
     3  1  1.50      -115.6019   6.0000                                                             
     3  2  2.50       -29.3106  10.0000                                                             
     4  0  0.50       -11.7309   2.0000                                                             
     4  1  0.50        -3.8952   2.0000                                                             
     4  3  2.50        -4.0817   0.0000                                                             
   Description                                                                                      
     l       E           TYP  RCUT    TYP  RCUT                                                     
     2    -29.3105938     23  2.200                                                                 
     2    -13.6058260     23  2.200                                                                 
     0    -11.7309493     23  2.300                                                                 
     0     -7.4578696     23  2.300                                                                 
     1     -3.8952261     23  2.300                                                                 
     1      6.1178114     23  2.300                                                                 
     3     -1.3605826     23  2.300                                                                 
  local pseudopotential read in
  partial core-charges read in
  partial kinetic energy density read in
  atomic valenz-charges read in
  non local Contribution for L=           2  read in
    real space projection operators read in
  non local Contribution for L=           2  read in
    real space projection operators read in
  non local Contribution for L=           0  read in
    real space projection operators read in
  non local Contribution for L=           0  read in
    real space projection operators read in
  non local Contribution for L=           1  read in
    real space projection operators read in
  non local Contribution for L=           1  read in
    real space projection operators read in
    PAW grid and wavefunctions read in

   number of l-projection  operators is LMAX  =           6
   number of lm-projection operators is LMMAX =          18

 Optimization of the real space projectors (new method)

 maximal supplied QI-value         = 16.25
 optimisation between [QCUT,QGAM] = [ 10.24, 20.48] = [ 29.35,117.42] Ry 
 Optimized for a Real-space Cutoff    1.55 Angstroem

   l    n(q)    QCUT    max X(q) W(low)/X(q) W(high)/X(q)  e(spline) 
   2      9    10.239     8.936    0.12E-03    0.40E-03    0.20E-06
   2      9    10.239     8.183    0.16E-03    0.51E-03    0.28E-06
   0     10    10.239    62.777    0.65E-04    0.49E-04    0.95E-07
   0     10    10.239    50.556    0.62E-04    0.48E-04    0.93E-07
   1      9    10.239    38.422    0.96E-04    0.27E-04    0.11E-06
   1      9    10.239    22.623    0.91E-04    0.26E-04    0.10E-06
 Optimization of the real space projectors (new method)

 maximal supplied QI-value         = 16.25
 optimisation between [QCUT,QGAM] = [ 10.24, 20.48] = [ 29.35,117.42] Ry 
 Optimized for a Real-space Cutoff    1.46 Angstroem

   l    n(q)    QCUT    max X(q) W(low)/X(q) W(high)/X(q)  e(spline) 
   2      8    10.239     7.143    0.13E-03    0.41E-04    0.58E-07
   2      8    10.239     5.586    0.18E-03    0.14E-03    0.11E-06
   0      9    10.239    12.382    0.45E-04    0.32E-04    0.36E-07
   0      9    10.239     6.622    0.74E-04    0.65E-04    0.77E-07
   1      8    10.239     7.935    0.11E-03    0.13E-03    0.16E-06
   1      8    10.239     2.425    0.95E-04    0.11E-03    0.14E-06
 Optimization of the real space projectors (new method)

 maximal supplied QI-value         = 16.25
 optimisation between [QCUT,QGAM] = [ 10.24, 20.48] = [ 29.35,117.42] Ry 
 Optimized for a Real-space Cutoff    1.55 Angstroem

   l    n(q)    QCUT    max X(q) W(low)/X(q) W(high)/X(q)  e(spline) 
   2      9    10.239     8.936    0.12E-03    0.40E-03    0.20E-06
   2      9    10.239     8.183    0.16E-03    0.51E-03    0.28E-06
   0     10    10.239    62.777    0.65E-04    0.49E-04    0.95E-07
   0     10    10.239    50.556    0.62E-04    0.48E-04    0.93E-07
   1      9    10.239    38.422    0.96E-04    0.27E-04    0.11E-06
   1      9    10.239    22.623    0.91E-04    0.26E-04    0.10E-06
  PAW_PBE Ge_d 03Jul2007                :
 energy of atom  1       EATOM=-2596.2402
 kinetic energy error for atom=    0.0173 (will be added to EATOM!!)
  PAW_PBE Ga_d 06Jul2010                :
 energy of atom  2       EATOM=-2148.8298
 kinetic energy error for atom=    0.0102 (will be added to EATOM!!)
  PAW_PBE Ge_d 03Jul2007                :
 energy of atom  3       EATOM=-2596.2402
 kinetic energy error for atom=    0.0173 (will be added to EATOM!!)


 POSCAR: Ge Ga Ge
  positions in direct lattice
  velocities in cartesian coordinates
 exchange correlation table for  LEXCH =        8
   RHO(1)=    0.500       N(1)  =     2000
   RHO(2)=  100.500       N(2)  =     4000



--------------------------------------------------------------------------------------------------------


 ion  position               nearest neighbor table
   1  0.000  0.000  0.167-  52 2.48 150 2.48 200 2.48   2 2.48
   2  0.083  0.083  0.250-   7 2.48  11 2.48  13 2.48   1 2.48
   3  0.000  0.167  0.000-  18 2.48 150 2.48   4 2.48 168 2.48
   4  0.083  0.250  0.083-   7 2.48  25 2.48  29 2.48   3 2.48
   5  0.167  0.000  0.000-  18 2.48  52 2.48   6 2.48  72 2.48
   6  0.250  0.083  0.083-   7 2.48  73 2.48  75 2.48   5 2.48
   7  0.167  0.167  0.167-   2 2.48   4 2.48   6 2.48   8 2.48
   8  0.250  0.250  0.250-  97 2.48  37 2.48  83 2.48   7 2.48
   9  0.000  0.000  0.500- 208 2.48  60 2.48 158 2.48  10 2.48
  10  0.083  0.083  0.583-  15 2.48  19 2.48  21 2.48   9 2.48
  11  0.000  0.167  0.333- 158 2.48  12 2.48   2 2.48 152 2.48
  12  0.083  0.250  0.417-  37 2.48  15 2.48  11 2.48  33 2.48
  13  0.167  0.000  0.333-  60 2.48  14 2.48   2 2.48  56 2.48
  14  0.250  0.083  0.417-  83 2.48  15 2.48  13 2.48  81 2.48
  15  0.167  0.167  0.500-  10 2.48  12 2.48  14 2.48  16 2.48
  16  0.250  0.250  0.583-  45 2.48  91 2.48 105 2.48  15 2.48
  17  0.000  0.000  0.833-  18 2.48 216 2.48 166 2.48  68 2.48
  18  0.083  0.083  0.917-  23 2.48   5 2.48  17 2.48   3 2.48
  19  0.000  0.167  0.667-  10 2.48 160 2.48 166 2.48  20 2.48
  20  0.083  0.250  0.750-  23 2.48  45 2.48  41 2.48  19 2.48
  21  0.167  0.000  0.667-  10 2.48  64 2.48  68 2.48  22 2.48
  22  0.250  0.083  0.750-  23 2.48  91 2.48  89 2.48  21 2.48
  23  0.167  0.167  0.833-  18 2.48  20 2.48  22 2.48  24 2.48
  24  0.250  0.250  0.917-  23 2.48 113 2.48  75 2.48  29 2.48
  25  0.000  0.333  0.167- 174 2.48  26 2.48   4 2.48 152 2.48
  26  0.083  0.417  0.250-  37 2.48  31 2.48  25 2.48  35 2.48
  27  0.000  0.500  0.000- 174 2.48  42 2.48  28 2.48 192 2.48
  28  0.083  0.583  0.083-  53 2.48  49 2.48  31 2.48  27 2.48
  29  0.167  0.333  0.000-  42 2.48  30 2.48   4 2.48  24 2.48
  30  0.250  0.417  0.083-  97 2.48  31 2.48  29 2.48  99 2.48
  31  0.167  0.500  0.167-  28 2.48  26 2.48  30 2.48  32 2.48
  32  0.250  0.583  0.250-  61 2.48 121 2.48 107 2.48  31 2.48
  33  0.000  0.333  0.500-  34 2.48 182 2.48 160 2.48  12 2.48
  34  0.083  0.417  0.583-  45 2.48  39 2.48  43 2.48  33 2.48
  35  0.000  0.500  0.333-  36 2.48 182 2.48 176 2.48  26 2.48
  36  0.083  0.583  0.417-  61 2.48  39 2.48  57 2.48  35 2.48
  37  0.167  0.333  0.333-  12 2.48  38 2.48  26 2.48   8 2.48
  38  0.250  0.417  0.417-  37 2.48 105 2.48 107 2.48  39 2.48
  39  0.167  0.500  0.500-  34 2.48  36 2.48  38 2.48  40 2.48
  40  0.250  0.583  0.583-  69 2.48 115 2.48 129 2.48  39 2.48
  41  0.000  0.333  0.833-  42 2.48 168 2.48 190 2.48  20 2.48
  42  0.083  0.417  0.917-  41 2.48  47 2.48  29 2.48  27 2.48
  43  0.000  0.500  0.667-  34 2.48 184 2.48 190 2.48  44 2.48
  44  0.083  0.583  0.750-  69 2.48  65 2.48  47 2.48  43 2.48
  45  0.167  0.333  0.667-  34 2.48  20 2.48  16 2.48  46 2.48
  46  0.250  0.417  0.750-  45 2.48 113 2.48 115 2.48  47 2.48
  47  0.167  0.500  0.833-  42 2.48  44 2.48  48 2.48  46 2.48
  48  0.250  0.583  0.917- 137 2.48  53 2.48  47 2.48  99 2.48
  49  0.000  0.667  0.167-  28 2.48 176 2.48 198 2.48  50 2.48
  50  0.083  0.750  0.250-  55 2.48  61 2.48  59 2.48  49 2.48
  51  0.000  0.833  0.000-  52 2.48 216 2.48 198 2.48  66 2.48
  52  0.083  0.917  0.083-  55 2.48   5 2.48  51 2.48   1 2.48
  53  0.167  0.667  0.000-  28 2.48  48 2.48  66 2.48  54 2.48
  54  0.250  0.750  0.083-  55 2.48 121 2.48 123 2.48  53 2.48
  55  0.167  0.833  0.167-  52 2.48  50 2.48  54 2.48  56 2.48
  56  0.250  0.917  0.250-  55 2.48 131 2.48  73 2.48  13 2.48
  57  0.000  0.667  0.500-  36 2.48 184 2.48  58 2.48 206 2.48
  58  0.083  0.750  0.583-  69 2.48  67 2.48  63 2.48  57 2.48
  59  0.000  0.833  0.333-  60 2.48 200 2.48 206 2.48  50 2.48
  60  0.083  0.917  0.417-  13 2.48  59 2.48  63 2.48   9 2.48
  61  0.167  0.667  0.333-  36 2.48  32 2.48  50 2.48  62 2.48
  62  0.250  0.750  0.417-  61 2.48 131 2.48 129 2.48  63 2.48
  63  0.167  0.833  0.500-  60 2.48  58 2.48  64 2.48  62 2.48
  64  0.250  0.917  0.583- 139 2.48  63 2.48  21 2.48  81 2.48
  65  0.000  0.667  0.833- 192 2.48  66 2.48  44 2.48 214 2.48
  66  0.083  0.750  0.917-  71 2.48  65 2.48  53 2.48  51 2.48
  67  0.000  0.833  0.667- 208 2.48  68 2.48  58 2.48 214 2.48
  68  0.083  0.917  0.750-  71 2.48  67 2.48  21 2.48  17 2.48
  69  0.167  0.667  0.667-  44 2.48  40 2.48  58 2.48  70 2.48
  70  0.250  0.750  0.750- 139 2.48  71 2.48 137 2.48  69 2.48
  71  0.167  0.833  0.833-  66 2.48  72 2.48  68 2.48  70 2.48
  72  0.250  0.917  0.917-  71 2.48  89 2.48 123 2.48   5 2.48
  73  0.333  0.000  0.167- 124 2.48  74 2.48   6 2.48  56 2.48
  74  0.417  0.083  0.250-  83 2.48  79 2.48  73 2.48  85 2.48
  75  0.333  0.167  0.000-  90 2.48  76 2.48   6 2.48  24 2.48
  76  0.417  0.250  0.083-  97 2.48  79 2.48  75 2.48 101 2.48
  77  0.500  0.000  0.000- 124 2.48  90 2.48  78 2.48 144 2.48
  78  0.583  0.083  0.083- 147 2.48 145 2.48  79 2.48  77 2.48
  79  0.500  0.167  0.167-  78 2.48  76 2.48  74 2.48  80 2.48
  80  0.583  0.250  0.250- 155 2.48 169 2.48  79 2.48 109 2.48
  81  0.333  0.000  0.500-  82 2.48 132 2.48  64 2.48  14 2.48
  82  0.417  0.083  0.583-  91 2.48  87 2.48  81 2.48  93 2.48
  83  0.333  0.167  0.333-  14 2.48  84 2.48  74 2.48   8 2.48
  84  0.417  0.250  0.417-  83 2.48 105 2.48 109 2.48  87 2.48
  85  0.500  0.000  0.333-  86 2.48 132 2.48 128 2.48  74 2.48
  86  0.583  0.083  0.417- 155 2.48  87 2.48 153 2.48  85 2.48
  87  0.500  0.167  0.500-  82 2.48  86 2.48  84 2.48  88 2.48
  88  0.583  0.250  0.583- 163 2.48 117 2.48 177 2.48  87 2.48
  89  0.333  0.000  0.833-  90 2.48  72 2.48 140 2.48  22 2.48
  90  0.417  0.083  0.917-  89 2.48  95 2.48  75 2.48  77 2.48
  91  0.333  0.167  0.667-  82 2.48  22 2.48  16 2.48  92 2.48
  92  0.417  0.250  0.750-  91 2.48 113 2.48 117 2.48  95 2.48
  93  0.500  0.000  0.667-  82 2.48 136 2.48 140 2.48  94 2.48
  94  0.583  0.083  0.750- 163 2.48 161 2.48  95 2.48  93 2.48
  95  0.500  0.167  0.833-  90 2.48  94 2.48  96 2.48  92 2.48
  96  0.583  0.250  0.917- 185 2.48 147 2.48  95 2.48 101 2.48
  97  0.333  0.333  0.167-  98 2.48  76 2.48  30 2.48   8 2.48
  98  0.417  0.417  0.250-  97 2.48 107 2.48 109 2.48 103 2.48
  99  0.333  0.500  0.000- 100 2.48 114 2.48  30 2.48  48 2.48
 100  0.417  0.583  0.083- 121 2.48 103 2.48  99 2.48 125 2.48
 101  0.500  0.333  0.000- 102 2.48 114 2.48  76 2.48  96 2.48
 102  0.583  0.417  0.083- 169 2.48 103 2.48 101 2.48 171 2.48
 103  0.500  0.500  0.167- 100 2.48 102 2.48  98 2.48 104 2.48
 104  0.583  0.583  0.250- 193 2.48 179 2.48 133 2.48 103 2.48
 105  0.333  0.333  0.500- 106 2.48  84 2.48  38 2.48  16 2.48
 106  0.417  0.417  0.583- 105 2.48 115 2.48 117 2.48 111 2.48
 107  0.333  0.500  0.333- 108 2.48  98 2.48  38 2.48  32 2.48
 108  0.417  0.583  0.417- 107 2.48 133 2.48 129 2.48 111 2.48
 109  0.500  0.333  0.333- 110 2.48  98 2.48  84 2.48  80 2.48
 110  0.583  0.417  0.417- 109 2.48 179 2.48 177 2.48 111 2.48
 111  0.500  0.500  0.500- 106 2.48 108 2.48 110 2.48 112 2.48
 112  0.583  0.583  0.583- 201 2.48 187 2.48 141 2.48 111 2.48
 113  0.333  0.333  0.833- 114 2.48  46 2.48  92 2.48  24 2.48
 114  0.417  0.417  0.917- 113 2.48 101 2.48  99 2.48 119 2.48
 115  0.333  0.500  0.667- 106 2.48  40 2.48 116 2.48  46 2.48
 116  0.417  0.583  0.750- 137 2.48 115 2.48 141 2.48 119 2.48
 117  0.500  0.333  0.667- 106 2.48  88 2.48 118 2.48  92 2.48
 118  0.583  0.417  0.750- 185 2.48 117 2.48 187 2.48 119 2.48
 119  0.500  0.500  0.833- 114 2.48 120 2.48 118 2.48 116 2.48
 120  0.583  0.583  0.917- 209 2.48 125 2.48 171 2.48 119 2.48
 121  0.333  0.667  0.167- 100 2.48  54 2.48  32 2.48 122 2.48
 122  0.417  0.750  0.250- 121 2.48 131 2.48 127 2.48 133 2.48
 123  0.333  0.833  0.000- 124 2.48  72 2.48 138 2.48  54 2.48
 124  0.417  0.917  0.083- 123 2.48  73 2.48 127 2.48  77 2.48
 125  0.500  0.667  0.000- 100 2.48 120 2.48 126 2.48 138 2.48
 126  0.583  0.750  0.083- 193 2.48 127 2.48 195 2.48 125 2.48
 127  0.500  0.833  0.167- 124 2.48 126 2.48 128 2.48 122 2.48
 128  0.583  0.917  0.250- 203 2.48 145 2.48 127 2.48  85 2.48
 129  0.333  0.667  0.500- 108 2.48  40 2.48 130 2.48  62 2.48
 130  0.417  0.750  0.583- 139 2.48 129 2.48 141 2.48 135 2.48
 131  0.333  0.833  0.333- 132 2.48  62 2.48 122 2.48  56 2.48
 132  0.417  0.917  0.417- 131 2.48  85 2.48  81 2.48 135 2.48
 133  0.500  0.667  0.333- 108 2.48 104 2.48 134 2.48 122 2.48
 134  0.583  0.750  0.417- 203 2.48 201 2.48 133 2.48 135 2.48
 135  0.500  0.833  0.500- 132 2.48 136 2.48 130 2.48 134 2.48
 136  0.583  0.917  0.583- 211 2.48 135 2.48 153 2.48  93 2.48
 137  0.333  0.667  0.833-  48 2.48 138 2.48 116 2.48  70 2.48
 138  0.417  0.750  0.917- 137 2.48 123 2.48 143 2.48 125 2.48
 139  0.333  0.833  0.667- 140 2.48 130 2.48  64 2.48  70 2.48
 140  0.417  0.917  0.750- 139 2.48  89 2.48 143 2.48  93 2.48
 141  0.500  0.667  0.667- 112 2.48 116 2.48 130 2.48 142 2.48
 142  0.583  0.750  0.750- 209 2.48 211 2.48 141 2.48 143 2.48
 143  0.500  0.833  0.833- 144 2.48 140 2.48 138 2.48 142 2.48
 144  0.583  0.917  0.917- 143 2.48 161 2.48 195 2.48  77 2.48
 145  0.667  0.000  0.167-  78 2.48 128 2.48 196 2.48 146 2.48
 146  0.750  0.083  0.250- 151 2.48 155 2.48 145 2.48 157 2.48
 147  0.667  0.167  0.000-  78 2.48  96 2.48 162 2.48 148 2.48
 148  0.750  0.250  0.083- 151 2.48 169 2.48 173 2.48 147 2.48
 149  0.833  0.000  0.000- 150 2.48 216 2.48 196 2.48 162 2.48
 150  0.917  0.083  0.083- 151 2.48   3 2.48 149 2.48   1 2.48
 151  0.833  0.167  0.167- 150 2.48 148 2.48 146 2.48 152 2.48
 152  0.917  0.250  0.250- 151 2.48 181 2.48  25 2.48  11 2.48
 153  0.667  0.000  0.500-  86 2.48 136 2.48 154 2.48 204 2.48
 154  0.750  0.083  0.583- 163 2.48 159 2.48 165 2.48 153 2.48
 155  0.667  0.167  0.333-  86 2.48  80 2.48 146 2.48 156 2.48
 156  0.750  0.250  0.417- 155 2.48 181 2.48 177 2.48 159 2.48
 157  0.833  0.000  0.333- 158 2.48 200 2.48 204 2.48 146 2.48
 158  0.917  0.083  0.417-  11 2.48 157 2.48 159 2.48   9 2.48
 159  0.833  0.167  0.500- 158 2.48 154 2.48 160 2.48 156 2.48
 160  0.917  0.250  0.583- 189 2.48 159 2.48  19 2.48  33 2.48
 161  0.667  0.000  0.833- 144 2.48  94 2.48 162 2.48 212 2.48
 162  0.750  0.083  0.917- 167 2.48 161 2.48 147 2.48 149 2.48
 163  0.667  0.167  0.667-  94 2.48  88 2.48 154 2.48 164 2.48
 164  0.750  0.250  0.750- 189 2.48 167 2.48 185 2.48 163 2.48
 165  0.833  0.000  0.667- 208 2.48 166 2.48 154 2.48 212 2.48
 166  0.917  0.083  0.750- 167 2.48 165 2.48  19 2.48  17 2.48
 167  0.833  0.167  0.833- 162 2.48 168 2.48 166 2.48 164 2.48
 168  0.917  0.250  0.917- 167 2.48  41 2.48 173 2.48   3 2.48
 169  0.667  0.333  0.167- 102 2.48  80 2.48 148 2.48 170 2.48
 170  0.750  0.417  0.250- 169 2.48 181 2.48 175 2.48 179 2.48
 171  0.667  0.500  0.000- 102 2.48 120 2.48 172 2.48 186 2.48
 172  0.750  0.583  0.083- 193 2.48 175 2.48 197 2.48 171 2.48
 173  0.833  0.333  0.000- 174 2.48 168 2.48 186 2.48 148 2.48
 174  0.917  0.417  0.083- 173 2.48  25 2.48 175 2.48  27 2.48
 175  0.833  0.500  0.167- 174 2.48 172 2.48 176 2.48 170 2.48
 176  0.917  0.583  0.250- 205 2.48 175 2.48  49 2.48  35 2.48
 177  0.667  0.333  0.500- 110 2.48  88 2.48 178 2.48 156 2.48
 178  0.750  0.417  0.583- 189 2.48 187 2.48 177 2.48 183 2.48
 179  0.667  0.500  0.333- 110 2.48 104 2.48 180 2.48 170 2.48
 180  0.750  0.583  0.417- 205 2.48 201 2.48 179 2.48 183 2.48
 181  0.833  0.333  0.333- 182 2.48 156 2.48 170 2.48 152 2.48
 182  0.917  0.417  0.417- 181 2.48  35 2.48  33 2.48 183 2.48
 183  0.833  0.500  0.500- 182 2.48 184 2.48 178 2.48 180 2.48
 184  0.917  0.583  0.583- 213 2.48  57 2.48 183 2.48  43 2.48
 185  0.667  0.333  0.833-  96 2.48 186 2.48 118 2.48 164 2.48
 186  0.750  0.417  0.917- 185 2.48 173 2.48 191 2.48 171 2.48
 187  0.667  0.500  0.667- 112 2.48 118 2.48 178 2.48 188 2.48
 188  0.750  0.583  0.750- 209 2.48 213 2.48 187 2.48 191 2.48
 189  0.833  0.333  0.667- 190 2.48 178 2.48 160 2.48 164 2.48
 190  0.917  0.417  0.750- 189 2.48  41 2.48 191 2.48  43 2.48
 191  0.833  0.500  0.833- 192 2.48 190 2.48 186 2.48 188 2.48
 192  0.917  0.583  0.917-  65 2.48 191 2.48 197 2.48  27 2.48
 193  0.667  0.667  0.167- 104 2.48 126 2.48 172 2.48 194 2.48
 194  0.750  0.750  0.250- 199 2.48 193 2.48 203 2.48 205 2.48
 195  0.667  0.833  0.000- 144 2.48 126 2.48 196 2.48 210 2.48
 196  0.750  0.917  0.083- 199 2.48 195 2.48 145 2.48 149 2.48
 197  0.833  0.667  0.000- 192 2.48 172 2.48 198 2.48 210 2.48
 198  0.917  0.750  0.083- 199 2.48 197 2.48  49 2.48  51 2.48
 199  0.833  0.833  0.167- 200 2.48 198 2.48 196 2.48 194 2.48
 200  0.917  0.917  0.250- 199 2.48 157 2.48  59 2.48   1 2.48
 201  0.667  0.667  0.500- 112 2.48 134 2.48 180 2.48 202 2.48
 202  0.750  0.750  0.583- 211 2.48 213 2.48 207 2.48 201 2.48
 203  0.667  0.833  0.333- 134 2.48 204 2.48 128 2.48 194 2.48
 204  0.750  0.917  0.417- 203 2.48 157 2.48 207 2.48 153 2.48
 205  0.833  0.667  0.333- 180 2.48 206 2.48 176 2.48 194 2.48
 206  0.917  0.750  0.417- 205 2.48  59 2.48 207 2.48  57 2.48
 207  0.833  0.833  0.500- 208 2.48 206 2.48 204 2.48 202 2.48
 208  0.917  0.917  0.583- 207 2.48 165 2.48  67 2.48   9 2.48
 209  0.667  0.667  0.833- 120 2.48 142 2.48 188 2.48 210 2.48
 210  0.750  0.750  0.917- 209 2.48 215 2.48 195 2.48 197 2.48
 211  0.667  0.833  0.667- 136 2.48 142 2.48 202 2.48 212 2.48
 212  0.750  0.917  0.750- 211 2.48 215 2.48 165 2.48 161 2.48
 213  0.833  0.667  0.667- 184 2.48 188 2.48 202 2.48 214 2.48
 214  0.917  0.750  0.750- 213 2.48 215 2.48  67 2.48  65 2.48
 215  0.833  0.833  0.833- 216 2.48 212 2.48 214 2.48 210 2.48
 216  0.917  0.917  0.917- 215 2.48  51 2.48 149 2.48  17 2.48

  LATTYP: Found a simple cubic cell.
 ALAT       =    17.1945353870
  
  Lattice vectors:
  
 A1 = (  17.1945353870,  -0.0000000000,   0.0000000000)
 A2 = (  -0.0000000000,  17.1945353870,   0.0000000000)
 A3 = (   0.0000000000,   0.0000000000,  17.1945353870)


Analysis of symmetry for initial positions (statically):
=====================================================================
 Subroutine PRICEL returns:
 Original cell was already a primitive cell.
 

 Routine SETGRP: Setting up the symmetry group for a 
 simple cubic supercell.


 Subroutine GETGRP returns: Found  1 space group operations
 (whereof  1 operations were pure point group operations)
 out of a pool of 48 trial point group operations.


The static configuration has the point symmetry C_1 .


Analysis of symmetry for dynamics (positions and initial velocities):
=====================================================================
 Subroutine PRICEL returns:
 Original cell was already a primitive cell.
 

 Routine SETGRP: Setting up the symmetry group for a 
 simple cubic supercell.


 Subroutine GETGRP returns: Found  1 space group operations
 (whereof  1 operations were pure point group operations)
 out of a pool of 48 trial point group operations.


The dynamic configuration has the point symmetry C_1 .


 Subroutine INISYM returns: Found  1 space group operations
 (whereof  1 operations are pure point group operations),
 and found     1 'primitive' translations


----------------------------------------------------------------------------------------

                                     Primitive cell                                     

  volume of cell :    5083.5996

  direct lattice vectors                    reciprocal lattice vectors
    17.194535387 -0.000000000  0.000000000     0.058158012  0.000000000 -0.000000000
    -0.000000000 17.194535387  0.000000000     0.000000000  0.058158012 -0.000000000
     0.000000000  0.000000000 17.194535387    -0.000000000 -0.000000000  0.058158012

  length of vectors
    17.194535387 17.194535387 17.194535387     0.058158012  0.058158012  0.058158012

  position of ions in fractional coordinates (direct lattice)
     0.000000000  0.000000000  0.166666667
     0.083333333  0.083333333  0.250000000
     0.000000000  0.166666667  1.000000000
     0.083333333  0.250000000  0.083333333
     0.166666667  0.000000000  1.000000000
     0.250000000  0.083333333  0.083333333
     0.166666667  0.166666667  0.166666667
     0.250000000  0.250000000  0.250000000
     0.000000000  0.000000000  0.500000000
     0.083333333  0.083333333  0.583333333
     0.000000000  0.166666667  0.333333333
     0.083333333  0.250000000  0.416666667
     0.166666667  0.000000000  0.333333333
     0.250000000  0.083333333  0.416666667
     0.166666667  0.166666667  0.500000000
     0.250000000  0.250000000  0.583333333
     0.000000000  0.000000000  0.833333333
     0.083333333  0.083333333  0.916666667
     0.000000000  0.166666667  0.666666667
     0.083333333  0.250000000  0.750000000
     0.166666667  0.000000000  0.666666667
     0.250000000  0.083333333  0.750000000
     0.166666667  0.166666667  0.833333333
     0.250000000  0.250000000  0.916666667
     0.000000000  0.333333333  0.166666667
     0.083333333  0.416666667  0.250000000
     0.000000000  0.500000000  1.000000000
     0.083333333  0.583333333  0.083333333
     0.166666667  0.333333333  1.000000000
     0.250000000  0.416666667  0.083333333
     0.166666667  0.500000000  0.166666667
     0.250000000  0.583333333  0.250000000
     0.000000000  0.333333333  0.500000000
     0.083333333  0.416666667  0.583333333
     0.000000000  0.500000000  0.333333333
     0.083333333  0.583333333  0.416666667
     0.166666667  0.333333333  0.333333333
     0.250000000  0.416666667  0.416666667
     0.166666667  0.500000000  0.500000000
     0.250000000  0.583333333  0.583333333
     0.000000000  0.333333333  0.833333333
     0.083333333  0.416666667  0.916666667
     0.000000000  0.500000000  0.666666667
     0.083333333  0.583333333  0.750000000
     0.166666667  0.333333333  0.666666667
     0.250000000  0.416666667  0.750000000
     0.166666667  0.500000000  0.833333333
     0.250000000  0.583333333  0.916666667
     0.000000000  0.666666667  0.166666667
     0.083333333  0.750000000  0.250000000
     0.000000000  0.833333333  1.000000000
     0.083333333  0.916666667  0.083333333
     0.166666667  0.666666667  1.000000000
     0.250000000  0.750000000  0.083333333
     0.166666667  0.833333333  0.166666667
     0.250000000  0.916666667  0.250000000
     0.000000000  0.666666667  0.500000000
     0.083333333  0.750000000  0.583333333
     0.000000000  0.833333333  0.333333333
     0.083333333  0.916666667  0.416666667
     0.166666667  0.666666667  0.333333333
     0.250000000  0.750000000  0.416666667
     0.166666667  0.833333333  0.500000000
     0.250000000  0.916666667  0.583333333
     0.000000000  0.666666667  0.833333333
     0.083333333  0.750000000  0.916666667
     0.000000000  0.833333333  0.666666667
     0.083333333  0.916666667  0.750000000
     0.166666667  0.666666667  0.666666667
     0.250000000  0.750000000  0.750000000
     0.166666667  0.833333333  0.833333333
     0.250000000  0.916666667  0.916666667
     0.333333333  0.000000000  0.166666667
     0.416666667  0.083333333  0.250000000
     0.333333333  0.166666667  1.000000000
     0.416666667  0.250000000  0.083333333
     0.500000000  0.000000000  1.000000000
     0.583333333  0.083333333  0.083333333
     0.500000000  0.166666667  0.166666667
     0.583333333  0.250000000  0.250000000
     0.333333333  0.000000000  0.500000000
     0.416666667  0.083333333  0.583333333
     0.333333333  0.166666667  0.333333333
     0.416666667  0.250000000  0.416666667
     0.500000000  0.000000000  0.333333333
     0.583333333  0.083333333  0.416666667
     0.500000000  0.166666667  0.500000000
     0.583333333  0.250000000  0.583333333
     0.333333333  0.000000000  0.833333333
     0.416666667  0.083333333  0.916666667
     0.333333333  0.166666667  0.666666667
     0.416666667  0.250000000  0.750000000
     0.500000000  0.000000000  0.666666667
     0.583333333  0.083333333  0.750000000
     0.500000000  0.166666667  0.833333333
     0.583333333  0.250000000  0.916666667
     0.333333333  0.333333333  0.166666667
     0.416666667  0.416666667  0.250000000
     0.333333333  0.500000000  1.000000000
     0.416666667  0.583333333  0.083333333
     0.500000000  0.333333333  1.000000000
     0.583333333  0.416666667  0.083333333
     0.500000000  0.500000000  0.166666667
     0.583333333  0.583333333  0.250000000
     0.333333333  0.333333333  0.500000000
     0.416666667  0.416666667  0.583333333
     0.333333333  0.500000000  0.333333333
     0.416666667  0.583333333  0.416666667
     0.500000000  0.333333333  0.333333333
     0.583333333  0.416666667  0.416666667
     0.500000000  0.500000000  0.500000000
     0.583333333  0.583333333  0.583333333
     0.333333333  0.333333333  0.833333333
     0.416666667  0.416666667  0.916666667
     0.333333333  0.500000000  0.666666667
     0.416666667  0.583333333  0.750000000
     0.500000000  0.333333333  0.666666667
     0.583333333  0.416666667  0.750000000
     0.500000000  0.500000000  0.833333333
     0.583333333  0.583333333  0.916666667
     0.333333333  0.666666667  0.166666667
     0.416666667  0.750000000  0.250000000
     0.333333333  0.833333333  1.000000000
     0.416666667  0.916666667  0.083333333
     0.500000000  0.666666667  1.000000000
     0.583333333  0.750000000  0.083333333
     0.500000000  0.833333333  0.166666667
     0.583333333  0.916666667  0.250000000
     0.333333333  0.666666667  0.500000000
     0.416666667  0.750000000  0.583333333
     0.333333333  0.833333333  0.333333333
     0.416666667  0.916666667  0.416666667
     0.500000000  0.666666667  0.333333333
     0.583333333  0.750000000  0.416666667
     0.500000000  0.833333333  0.500000000
     0.583333333  0.916666667  0.583333333
     0.333333333  0.666666667  0.833333333
     0.416666667  0.750000000  0.916666667
     0.333333333  0.833333333  0.666666667
     0.416666667  0.916666667  0.750000000
     0.500000000  0.666666667  0.666666667
     0.583333333  0.750000000  0.750000000
     0.500000000  0.833333333  0.833333333
     0.583333333  0.916666667  0.916666667
     0.666666667  0.000000000  0.166666667
     0.750000000  0.083333333  0.250000000
     0.666666667  0.166666667  1.000000000
     0.750000000  0.250000000  0.083333333
     0.833333333  0.000000000  1.000000000
     0.916666667  0.083333333  0.083333333
     0.833333333  0.166666667  0.166666667
     0.916666667  0.250000000  0.250000000
     0.666666667  0.000000000  0.500000000
     0.750000000  0.083333333  0.583333333
     0.666666667  0.166666667  0.333333333
     0.750000000  0.250000000  0.416666667
     0.833333333  0.000000000  0.333333333
     0.916666667  0.083333333  0.416666667
     0.833333333  0.166666667  0.500000000
     0.916666667  0.250000000  0.583333333
     0.666666667  0.000000000  0.833333333
     0.750000000  0.083333333  0.916666667
     0.666666667  0.166666667  0.666666667
     0.750000000  0.250000000  0.750000000
     0.833333333  0.000000000  0.666666667
     0.916666667  0.083333333  0.750000000
     0.833333333  0.166666667  0.833333333
     0.916666667  0.250000000  0.916666667
     0.666666667  0.333333333  0.166666667
     0.750000000  0.416666667  0.250000000
     0.666666667  0.500000000  1.000000000
     0.750000000  0.583333333  0.083333333
     0.833333333  0.333333333  1.000000000
     0.916666667  0.416666667  0.083333333
     0.833333333  0.500000000  0.166666667
     0.916666667  0.583333333  0.250000000
     0.666666667  0.333333333  0.500000000
     0.750000000  0.416666667  0.583333333
     0.666666667  0.500000000  0.333333333
     0.750000000  0.583333333  0.416666667
     0.833333333  0.333333333  0.333333333
     0.916666667  0.416666667  0.416666667
     0.833333333  0.500000000  0.500000000
     0.916666667  0.583333333  0.583333333
     0.666666667  0.333333333  0.833333333
     0.750000000  0.416666667  0.916666667
     0.666666667  0.500000000  0.666666667
     0.750000000  0.583333333  0.750000000
     0.833333333  0.333333333  0.666666667
     0.916666667  0.416666667  0.750000000
     0.833333333  0.500000000  0.833333333
     0.916666667  0.583333333  0.916666667
     0.666666667  0.666666667  0.166666667
     0.750000000  0.750000000  0.250000000
     0.666666667  0.833333333  1.000000000
     0.750000000  0.916666667  0.083333333
     0.833333333  0.666666667  1.000000000
     0.916666667  0.750000000  0.083333333
     0.833333333  0.833333333  0.166666667
     0.916666667  0.916666667  0.250000000
     0.666666667  0.666666667  0.500000000
     0.750000000  0.750000000  0.583333333
     0.666666667  0.833333333  0.333333333
     0.750000000  0.916666667  0.416666667
     0.833333333  0.666666667  0.333333333
     0.916666667  0.750000000  0.416666667
     0.833333333  0.833333333  0.500000000
     0.916666667  0.916666667  0.583333333
     0.666666667  0.666666667  0.833333333
     0.750000000  0.750000000  0.916666667
     0.666666667  0.833333333  0.666666667
     0.750000000  0.916666667  0.750000000
     0.833333333  0.666666667  0.666666667
     0.916666667  0.750000000  0.750000000
     0.833333333  0.833333333  0.833333333
     0.916666667  0.916666667  0.916666667

  ion indices of the primitive-cell ions
   primitive index   ion index
                 1           1
                 2           2
                 3           3
                 4           4
                 5           5
                 6           6
                 7           7
                 8           8
                 9           9
                10          10
                11          11
                12          12
                13          13
                14          14
                15          15
                16          16
                17          17
                18          18
                19          19
                20          20
                21          21
                22          22
                23          23
                24          24
                25          25
                26          26
                27          27
                28          28
                29          29
                30          30
                31          31
                32          32
                33          33
                34          34
                35          35
                36          36
                37          37
                38          38
                39          39
                40          40
                41          41
                42          42
                43          43
                44          44
                45          45
                46          46
                47          47
                48          48
                49          49
                50          50
                51          51
                52          52
                53          53
                54          54
                55          55
                56          56
                57          57
                58          58
                59          59
                60          60
                61          61
                62          62
                63          63
                64          64
                65          65
                66          66
                67          67
                68          68
                69          69
                70          70
                71          71
                72          72
                73          73
                74          74
                75          75
                76          76
                77          77
                78          78
                79          79
                80          80
                81          81
                82          82
                83          83
                84          84
                85          85
                86          86
                87          87
                88          88
                89          89
                90          90
                91          91
                92          92
                93          93
                94          94
                95          95
                96          96
                97          97
                98          98
                99          99
               100         100
               101         101
               102         102
               103         103
               104         104
               105         105
               106         106
               107         107
               108         108
               109         109
               110         110
               111         111
               112         112
               113         113
               114         114
               115         115
               116         116
               117         117
               118         118
               119         119
               120         120
               121         121
               122         122
               123         123
               124         124
               125         125
               126         126
               127         127
               128         128
               129         129
               130         130
               131         131
               132         132
               133         133
               134         134
               135         135
               136         136
               137         137
               138         138
               139         139
               140         140
               141         141
               142         142
               143         143
               144         144
               145         145
               146         146
               147         147
               148         148
               149         149
               150         150
               151         151
               152         152
               153         153
               154         154
               155         155
               156         156
               157         157
               158         158
               159         159
               160         160
               161         161
               162         162
               163         163
               164         164
               165         165
               166         166
               167         167
               168         168
               169         169
               170         170
               171         171
               172         172
               173         173
               174         174
               175         175
               176         176
               177         177
               178         178
               179         179
               180         180
               181         181
               182         182
               183         183
               184         184
               185         185
               186         186
               187         187
               188         188
               189         189
               190         190
               191         191
               192         192
               193         193
               194         194
               195         195
               196         196
               197         197
               198         198
               199         199
               200         200
               201         201
               202         202
               203         203
               204         204
               205         205
               206         206
               207         207
               208         208
               209         209
               210         210
               211         211
               212         212
               213         213
               214         214
               215         215
               216         216

----------------------------------------------------------------------------------------



 KPOINTS: K-Spacing Value to Generate K-Mesh: 0.04

Automatic generation of k-mesh.
 Grid dimensions read from file:
 generate k-points for:    1    1    1

 Generating k-lattice:

  Cartesian coordinates                     Fractional coordinates (reciprocal lattice)
     0.058158012  0.000000000 -0.000000000     1.000000000  0.000000000  0.000000000
     0.000000000  0.058158012 -0.000000000     0.000000000  1.000000000  0.000000000
    -0.000000000 -0.000000000  0.058158012    -0.000000000 -0.000000000  1.000000000

  Length of vectors
     0.058158012  0.058158012  0.058158012

  Shift w.r.t. Gamma in fractional coordinates (k-lattice)
     0.000000000  0.000000000  0.000000000

 
 Subroutine IBZKPT returns following result:
 ===========================================
 
 Found      1 irreducible k-points:
 
 Following reciprocal coordinates:
            Coordinates               Weight
  0.000000  0.000000  0.000000      1.000000
 
 Following cartesian coordinates:
            Coordinates               Weight
  0.000000  0.000000  0.000000      1.000000
 


--------------------------------------------------------------------------------------------------------




 Dimension of arrays:
   k-points           NKPTS =      1   k-points in BZ     NKDIM =      1   number of bands    NBANDS=   1814
   number of dos      NEDOS =    301   number of ions     NIONS =    216
   non local maximal  LDIM  =      6   non local SUM 2l+1 LMDIM =     18
   total plane-waves  NPLWV = ******
   max r-space proj   IRMAX =   4392   max aug-charges    IRDMAX=  83977
   dimension x,y,z NGX =   112 NGY =  112 NGZ =  112
   dimension x,y,z NGXF=   224 NGYF=  224 NGZF=  224
   support grid    NGXF=   448 NGYF=  448 NGZF=  448
   ions per type =              47   1 168
   NGX,Y,Z   is equivalent  to a cutoff of  10.83, 10.83, 10.83 a.u.
   NGXF,Y,Z  is equivalent  to a cutoff of  21.66, 21.66, 21.66 a.u.

 SYSTEM =  unknown system                          
 POSCAR =  Ge Ga Ge                                

 Startparameter for this run:
   NWRITE =      2    write-flag & timer
   PREC   = accura    normal or accurate (medium, high low for compatibility)
   ISTART =      0    job   : 0-new  1-cont  2-samecut
   ICHARG =      2    charge: 1-file 2-atom 10-const
   ISPIN  =      1    spin polarized calculation?
   LNONCOLLINEAR =      F non collinear calculations
   LSORBIT =      F    spin-orbit coupling
   INIWAV =      1    electr: 0-lowe 1-rand  2-diag
   LASPH  =      F    aspherical Exc in radial PAW
 Electronic Relaxation 1
   ENCUT  =  400.0 eV  29.40 Ry    5.42 a.u.  28.04 28.04 28.04*2*pi/ulx,y,z
   ENINI  =  400.0     initial cutoff
   ENAUG  =  531.4 eV  augmentation charge cutoff
   NELM   =     90;   NELMIN=  6; NELMDL=  0     # of ELM steps 
   EDIFF  = 0.1E-07   stopping-criterion for ELM
   LREAL  =      T    real-space projection
   NLSPLINE    = F    spline interpolate recip. space projectors
   LCOMPAT=      F    compatible to vasp.4.4
   GGA_COMPAT  = T    GGA compatible to vasp.4.4-vasp.4.6
   LMAXPAW     = -100 max onsite density
   LMAXMIX     =    2 max onsite mixed and CHGCAR
   VOSKOWN=      0    Vosko Wilk Nusair interpolation
   ROPT   =   -0.00025  -0.00025  -0.00025
 Ionic relaxation
   EDIFFG = -.2E-01   stopping-criterion for IOM
   NSW    =    100    number of steps for IOM
   NBLOCK =      1;   KBLOCK =    100    inner block; outer block 
   IBRION =      2    ionic relax: 0-MD 1-quasi-New 2-CG
   NFREE  =      1    steps in history (QN), initial steepest desc. (CG)
   ISIF   =      2    stress and relaxation
   IWAVPR =     11    prediction:  0-non 1-charg 2-wave 3-comb
   ISYM   =      2    0-nonsym 1-usesym 2-fastsym
   LCORR  =      T    Harris-Foulkes like correction to forces

   POTIM  = 0.5000    time-step for ionic-motion
   TEIN   =    0.0    initial temperature
   TEBEG  =    0.0;   TEEND  =   0.0 temperature during run
   SMASS  =  -3.00    Nose mass-parameter (am)
   estimated Nose-frequenzy (Omega)   =  0.10E-29 period in steps = 0.13E+47 mass=  -0.676E-26a.u.
   SCALEE = 1.0000    scale energy and forces
   NPACO  =    256;   APACO  = 10.0  distance and # of slots for P.C.
   PSTRESS=    0.0 pullay stress

  Mass of Ions in am
   POMASS =  72.61 69.72 72.61
  Ionic Valenz
   ZVAL   =  14.00 13.00 14.00
  Atomic Wigner-Seitz radii
   RWIGS  =  -1.00 -1.00 -1.00
  virtual crystal weights 
   VCA    =   1.00  1.00  1.00
   NELECT =    3023.0000    total number of electrons
   NUPDOWN=      -1.0000    fix difference up-down

 DOS related values:
   EMIN   =  10.00;   EMAX   =-10.00  energy-range for DOS
   EFERMI =   0.00
   ISMEAR =     0;   SIGMA  =   0.05  broadening in eV -4-tet -1-fermi 0-gaus

 Electronic relaxation 2 (details)
   IALGO  =     38    algorithm
   LDIAG  =      T    sub-space diagonalisation (order eigenvalues)
   LSUBROT=      F    optimize rotation matrix (better conditioning)
   TURBO    =      0    0=normal 1=particle mesh
   IRESTART =      0    0=no restart 2=restart with 2 vectors
   NREBOOT  =      0    no. of reboots
   NMIN     =      0    reboot dimension
   EREF     =   0.00    reference energy to select bands
   IMIX   =      4    mixing-type and parameters
     AMIX     =   0.40;   BMIX     =  1.00
     AMIX_MAG =   1.60;   BMIX_MAG =  1.00
     AMIN     =   0.10
     WC   =   100.;   INIMIX=   1;  MIXPRE=   1;  MAXMIX= -45

 Intra band minimization:
   WEIMIN = 0.0010     energy-eigenvalue tresh-hold
   EBREAK =  0.14E-11  absolut break condition
   DEPER  =   0.30     relativ break condition  

   TIME   =   0.40     timestep for ELM

  volume/ion in A,a.u.               =      23.54       158.82
  Fermi-wavevector in a.u.,A,eV,Ry     =   1.376672  2.601533 25.786107  1.895225
  Thomas-Fermi vector in A             =   2.501895

 Write flags
   LWAVE        =      T    write WAVECAR
   LDOWNSAMPLE  =      F    k-point downsampling of WAVECAR
   LCHARG       =      T    write CHGCAR
   LVTOT        =      F    write LOCPOT, total local potential
   LVHAR        =      F    write LOCPOT, Hartree potential only
   LELF         =      F    write electronic localiz. function (ELF)
   LORBIT       =      0    0 simple, 1 ext, 2 COOP (PROOUT), +10 PAW based schemes


 Dipole corrections
   LMONO  =      F    monopole corrections only (constant potential shift)
   LDIPOL =      F    correct potential (dipole corrections)
   IDIPOL =      0    1-x, 2-y, 3-z, 4-all directions 
   EPSILON=  1.0000000 bulk dielectric constant

 Exchange correlation treatment:
   GGA     =    --    GGA type
   LEXCH   =     8    internal setting for exchange type
   LIBXC   =     F    Libxc                    
   VOSKOWN =     0    Vosko Wilk Nusair interpolation
   LHFCALC =     F    Hartree Fock is set to
   LHFONE  =     F    Hartree Fock one center treatment
   AEXX    =    0.0000 exact exchange contribution

 Linear response parameters
   LEPSILON=     F    determine dielectric tensor
   LRPA    =     F    only Hartree local field effects (RPA)
   LNABLA  =     F    use nabla operator in PAW spheres
   LVEL    =     F    velocity operator in full k-point grid
   CSHIFT  =0.1000    complex shift for real part using Kramers Kronig
   OMEGAMAX=  -1.0    maximum frequency
   DEG_THRESHOLD= 0.2000000E-02 threshold for treating states as degnerate
   RTIME   =   -0.100 relaxation time in fs
  (WPLASMAI=    0.000 imaginary part of plasma frequency in eV, 0.658/RTIME)
   DFIELD  = 0.0000000 0.0000000 0.0000000 field for delta impulse in time

  Optional k-point grid parameters
   LKPOINTS_OPT  =     F    use optional k-point grid
   KPOINTS_OPT_MODE=     1    mode for optional k-point grid

 Orbital magnetization related:
   ORBITALMAG=     F  switch on orbital magnetization
   LCHIMAG   =     F  perturbation theory with respect to B field
   DQ        =  0.001000  dq finite difference perturbation B field
   LLRAUG    =     F  two centre corrections for induced B field



--------------------------------------------------------------------------------------------------------


 conjugate gradient relaxation of ions
 charge density and potential will be updated during run
 non-spin polarized calculation
 Variant of blocked Davidson
 Davidson routine will perform the subspace rotation
 perform sub-space diagonalisation
    after iterative eigenvector-optimisation
 modified Broyden-mixing scheme, WC =      100.0
 initial mixing is a Kerker type mixing with AMIX =  0.4000 and BMIX =      1.0000
 Hartree-type preconditioning will be used
 using additional bands          302
 real space projection scheme for non local part
 use partial core corrections
 calculate Harris-corrections to forces   (improved forces if not selfconsistent)
 use gradient corrections 
 use of overlap-Matrix (Vanderbilt PP)
 Gauss-broadening in eV      SIGMA  =   0.05


--------------------------------------------------------------------------------------------------------


  energy-cutoff  :      400.00
  volume of cell :     5083.60
      direct lattice vectors                 reciprocal lattice vectors
    17.194535387 -0.000000000  0.000000000     0.058158012  0.000000000 -0.000000000
    -0.000000000 17.194535387  0.000000000     0.000000000  0.058158012 -0.000000000
     0.000000000  0.000000000 17.194535387    -0.000000000 -0.000000000  0.058158012

  length of vectors
    17.194535387 17.194535387 17.194535387     0.058158012  0.058158012  0.058158012



 k-points in units of 2pi/SCALE and weight: K-Spacing Value to Generate K-Mesh: 0.04
   0.00000000  0.00000000  0.00000000       1.000

 k-points in reciprocal lattice and weights: K-Spacing Value to Generate K-Mesh: 0.04
   0.00000000  0.00000000  0.00000000       1.000

 position of ions in fractional coordinates (direct lattice) 
   0.00000000  0.00000000  0.16666667
   0.08333333  0.08333333  0.25000000
   0.00000000  0.16666667  0.00000000
   0.08333333  0.25000000  0.08333333
   0.16666667  0.00000000  0.00000000
   0.25000000  0.08333333  0.08333333
   0.16666667  0.16666667  0.16666667
   0.25000000  0.25000000  0.25000000
   0.00000000  0.00000000  0.50000000
   0.08333333  0.08333333  0.58333333
   0.00000000  0.16666667  0.33333333
   0.08333333  0.25000000  0.41666667
   0.16666667  0.00000000  0.33333333
   0.25000000  0.08333333  0.41666667
   0.16666667  0.16666667  0.50000000
   0.25000000  0.25000000  0.58333333
   0.00000000  0.00000000  0.83333333
   0.08333333  0.08333333  0.91666667
   0.00000000  0.16666667  0.66666667
   0.08333333  0.25000000  0.75000000
   0.16666667  0.00000000  0.66666667
   0.25000000  0.08333333  0.75000000
   0.16666667  0.16666667  0.83333333
   0.25000000  0.25000000  0.91666667
   0.00000000  0.33333333  0.16666667
   0.08333333  0.41666667  0.25000000
   0.00000000  0.50000000  0.00000000
   0.08333333  0.58333333  0.08333333
   0.16666667  0.33333333  0.00000000
   0.25000000  0.41666667  0.08333333
   0.16666667  0.50000000  0.16666667
   0.25000000  0.58333333  0.25000000
   0.00000000  0.33333333  0.50000000
   0.08333333  0.41666667  0.58333333
   0.00000000  0.50000000  0.33333333
   0.08333333  0.58333333  0.41666667
   0.16666667  0.33333333  0.33333333
   0.25000000  0.41666667  0.41666667
   0.16666667  0.50000000  0.50000000
   0.25000000  0.58333333  0.58333333
   0.00000000  0.33333333  0.83333333
   0.08333333  0.41666667  0.91666667
   0.00000000  0.50000000  0.66666667
   0.08333333  0.58333333  0.75000000
   0.16666667  0.33333333  0.66666667
   0.25000000  0.41666667  0.75000000
   0.16666667  0.50000000  0.83333333
   0.25000000  0.58333333  0.91666667
   0.00000000  0.66666667  0.16666667
   0.08333333  0.75000000  0.25000000
   0.00000000  0.83333333  0.00000000
   0.08333333  0.91666667  0.08333333
   0.16666667  0.66666667  0.00000000
   0.25000000  0.75000000  0.08333333
   0.16666667  0.83333333  0.16666667
   0.25000000  0.91666667  0.25000000
   0.00000000  0.66666667  0.50000000
   0.08333333  0.75000000  0.58333333
   0.00000000  0.83333333  0.33333333
   0.08333333  0.91666667  0.41666667
   0.16666667  0.66666667  0.33333333
   0.25000000  0.75000000  0.41666667
   0.16666667  0.83333333  0.50000000
   0.25000000  0.91666667  0.58333333
   0.00000000  0.66666667  0.83333333
   0.08333333  0.75000000  0.91666667
   0.00000000  0.83333333  0.66666667
   0.08333333  0.91666667  0.75000000
   0.16666667  0.66666667  0.66666667
   0.25000000  0.75000000  0.75000000
   0.16666667  0.83333333  0.83333333
   0.25000000  0.91666667  0.91666667
   0.33333333  0.00000000  0.16666667
   0.41666667  0.08333333  0.25000000
   0.33333333  0.16666667  0.00000000
   0.41666667  0.25000000  0.08333333
   0.50000000  0.00000000  0.00000000
   0.58333333  0.08333333  0.08333333
   0.50000000  0.16666667  0.16666667
   0.58333333  0.25000000  0.25000000
   0.33333333  0.00000000  0.50000000
   0.41666667  0.08333333  0.58333333
   0.33333333  0.16666667  0.33333333
   0.41666667  0.25000000  0.41666667
   0.50000000  0.00000000  0.33333333
   0.58333333  0.08333333  0.41666667
   0.50000000  0.16666667  0.50000000
   0.58333333  0.25000000  0.58333333
   0.33333333  0.00000000  0.83333333
   0.41666667  0.08333333  0.91666667
   0.33333333  0.16666667  0.66666667
   0.41666667  0.25000000  0.75000000
   0.50000000  0.00000000  0.66666667
   0.58333333  0.08333333  0.75000000
   0.50000000  0.16666667  0.83333333
   0.58333333  0.25000000  0.91666667
   0.33333333  0.33333333  0.16666667
   0.41666667  0.41666667  0.25000000
   0.33333333  0.50000000  0.00000000
   0.41666667  0.58333333  0.08333333
   0.50000000  0.33333333  0.00000000
   0.58333333  0.41666667  0.08333333
   0.50000000  0.50000000  0.16666667
   0.58333333  0.58333333  0.25000000
   0.33333333  0.33333333  0.50000000
   0.41666667  0.41666667  0.58333333
   0.33333333  0.50000000  0.33333333
   0.41666667  0.58333333  0.41666667
   0.50000000  0.33333333  0.33333333
   0.58333333  0.41666667  0.41666667
   0.50000000  0.50000000  0.50000000
   0.58333333  0.58333333  0.58333333
   0.33333333  0.33333333  0.83333333
   0.41666667  0.41666667  0.91666667
   0.33333333  0.50000000  0.66666667
   0.41666667  0.58333333  0.75000000
   0.50000000  0.33333333  0.66666667
   0.58333333  0.41666667  0.75000000
   0.50000000  0.50000000  0.83333333
   0.58333333  0.58333333  0.91666667
   0.33333333  0.66666667  0.16666667
   0.41666667  0.75000000  0.25000000
   0.33333333  0.83333333  0.00000000
   0.41666667  0.91666667  0.08333333
   0.50000000  0.66666667  0.00000000
   0.58333333  0.75000000  0.08333333
   0.50000000  0.83333333  0.16666667
   0.58333333  0.91666667  0.25000000
   0.33333333  0.66666667  0.50000000
   0.41666667  0.75000000  0.58333333
   0.33333333  0.83333333  0.33333333
   0.41666667  0.91666667  0.41666667
   0.50000000  0.66666667  0.33333333
   0.58333333  0.75000000  0.41666667
   0.50000000  0.83333333  0.50000000
   0.58333333  0.91666667  0.58333333
   0.33333333  0.66666667  0.83333333
   0.41666667  0.75000000  0.91666667
   0.33333333  0.83333333  0.66666667
   0.41666667  0.91666667  0.75000000
   0.50000000  0.66666667  0.66666667
   0.58333333  0.75000000  0.75000000
   0.50000000  0.83333333  0.83333333
   0.58333333  0.91666667  0.91666667
   0.66666667  0.00000000  0.16666667
   0.75000000  0.08333333  0.25000000
   0.66666667  0.16666667  0.00000000
   0.75000000  0.25000000  0.08333333
   0.83333333  0.00000000  0.00000000
   0.91666667  0.08333333  0.08333333
   0.83333333  0.16666667  0.16666667
   0.91666667  0.25000000  0.25000000
   0.66666667  0.00000000  0.50000000
   0.75000000  0.08333333  0.58333333
   0.66666667  0.16666667  0.33333333
   0.75000000  0.25000000  0.41666667
   0.83333333  0.00000000  0.33333333
   0.91666667  0.08333333  0.41666667
   0.83333333  0.16666667  0.50000000
   0.91666667  0.25000000  0.58333333
   0.66666667  0.00000000  0.83333333
   0.75000000  0.08333333  0.91666667
   0.66666667  0.16666667  0.66666667
   0.75000000  0.25000000  0.75000000
   0.83333333  0.00000000  0.66666667
   0.91666667  0.08333333  0.75000000
   0.83333333  0.16666667  0.83333333
   0.91666667  0.25000000  0.91666667
   0.66666667  0.33333333  0.16666667
   0.75000000  0.41666667  0.25000000
   0.66666667  0.50000000  0.00000000
   0.75000000  0.58333333  0.08333333
   0.83333333  0.33333333  0.00000000
   0.91666667  0.41666667  0.08333333
   0.83333333  0.50000000  0.16666667
   0.91666667  0.58333333  0.25000000
   0.66666667  0.33333333  0.50000000
   0.75000000  0.41666667  0.58333333
   0.66666667  0.50000000  0.33333333
   0.75000000  0.58333333  0.41666667
   0.83333333  0.33333333  0.33333333
   0.91666667  0.41666667  0.41666667
   0.83333333  0.50000000  0.50000000
   0.91666667  0.58333333  0.58333333
   0.66666667  0.33333333  0.83333333
   0.75000000  0.41666667  0.91666667
   0.66666667  0.50000000  0.66666667
   0.75000000  0.58333333  0.75000000
   0.83333333  0.33333333  0.66666667
   0.91666667  0.41666667  0.75000000
   0.83333333  0.50000000  0.83333333
   0.91666667  0.58333333  0.91666667
   0.66666667  0.66666667  0.16666667
   0.75000000  0.75000000  0.25000000
   0.66666667  0.83333333  0.00000000
   0.75000000  0.91666667  0.08333333
   0.83333333  0.66666667  0.00000000
   0.91666667  0.75000000  0.08333333
   0.83333333  0.83333333  0.16666667
   0.91666667  0.91666667  0.25000000
   0.66666667  0.66666667  0.50000000
   0.75000000  0.75000000  0.58333333
   0.66666667  0.83333333  0.33333333
   0.75000000  0.91666667  0.41666667
   0.83333333  0.66666667  0.33333333
   0.91666667  0.75000000  0.41666667
   0.83333333  0.83333333  0.50000000
   0.91666667  0.91666667  0.58333333
   0.66666667  0.66666667  0.83333333
   0.75000000  0.75000000  0.91666667
   0.66666667  0.83333333  0.66666667
   0.75000000  0.91666667  0.75000000
   0.83333333  0.66666667  0.66666667
   0.91666667  0.75000000  0.75000000
   0.83333333  0.83333333  0.83333333
   0.91666667  0.91666667  0.91666667

 position of ions in cartesian coordinates  (Angst):
   0.00000000  0.00000000  2.86575590
   1.43287795  1.43287795  4.29863385
  -0.00000000  2.86575590  0.00000000
   1.43287795  4.29863385  1.43287795
   2.86575590  0.00000000  0.00000000
   4.29863385  1.43287795  1.43287795
   2.86575590  2.86575590  2.86575590
   4.29863385  4.29863385  4.29863385
   0.00000000  0.00000000  8.59726769
   1.43287795  1.43287795 10.03014564
  -0.00000000  2.86575590  5.73151180
   1.43287795  4.29863385  7.16438974
   2.86575590  0.00000000  5.73151180
   4.29863385  1.43287795  7.16438974
   2.86575590  2.86575590  8.59726769
   4.29863385  4.29863385 10.03014564
   0.00000000  0.00000000 14.32877949
   1.43287795  1.43287795 15.76165744
  -0.00000000  2.86575590 11.46302359
   1.43287795  4.29863385 12.89590154
   2.86575590  0.00000000 11.46302359
   4.29863385  1.43287795 12.89590154
   2.86575590  2.86575590 14.32877949
   4.29863385  4.29863385 15.76165744
  -0.00000000  5.73151180  2.86575590
   1.43287795  7.16438974  4.29863385
  -0.00000000  8.59726769  0.00000000
   1.43287795 10.03014564  1.43287795
   2.86575590  5.73151180  0.00000000
   4.29863385  7.16438974  1.43287795
   2.86575590  8.59726769  2.86575590
   4.29863385 10.03014564  4.29863385
  -0.00000000  5.73151180  8.59726769
   1.43287795  7.16438974 10.03014564
  -0.00000000  8.59726769  5.73151180
   1.43287795 10.03014564  7.16438974
   2.86575590  5.73151180  5.73151180
   4.29863385  7.16438974  7.16438974
   2.86575590  8.59726769  8.59726769
   4.29863385 10.03014564 10.03014564
  -0.00000000  5.73151180 14.32877949
   1.43287795  7.16438974 15.76165744
  -0.00000000  8.59726769 11.46302359
   1.43287795 10.03014564 12.89590154
   2.86575590  5.73151180 11.46302359
   4.29863385  7.16438974 12.89590154
   2.86575590  8.59726769 14.32877949
   4.29863385 10.03014564 15.76165744
  -0.00000000 11.46302359  2.86575590
   1.43287795 12.89590154  4.29863385
  -0.00000000 14.32877949  0.00000000
   1.43287795 15.76165744  1.43287795
   2.86575590 11.46302359  0.00000000
   4.29863385 12.89590154  1.43287795
   2.86575590 14.32877949  2.86575590
   4.29863385 15.76165744  4.29863385
  -0.00000000 11.46302359  8.59726769
   1.43287795 12.89590154 10.03014564
  -0.00000000 14.32877949  5.73151180
   1.43287795 15.76165744  7.16438974
   2.86575590 11.46302359  5.73151180
   4.29863385 12.89590154  7.16438974
   2.86575590 14.32877949  8.59726769
   4.29863385 15.76165744 10.03014564
  -0.00000000 11.46302359 14.32877949
   1.43287795 12.89590154 15.76165744
  -0.00000000 14.32877949 11.46302359
   1.43287795 15.76165744 12.89590154
   2.86575590 11.46302359 11.46302359
   4.29863385 12.89590154 12.89590154
   2.86575590 14.32877949 14.32877949
   4.29863385 15.76165744 15.76165744
   5.73151180  0.00000000  2.86575590
   7.16438974  1.43287795  4.29863385
   5.73151180  2.86575590  0.00000000
   7.16438974  4.29863385  1.43287795
   8.59726769  0.00000000  0.00000000
  10.03014564  1.43287795  1.43287795
   8.59726769  2.86575590  2.86575590
  10.03014564  4.29863385  4.29863385
   5.73151180  0.00000000  8.59726769
   7.16438974  1.43287795 10.03014564
   5.73151180  2.86575590  5.73151180
   7.16438974  4.29863385  7.16438974
   8.59726769  0.00000000  5.73151180
  10.03014564  1.43287795  7.16438974
   8.59726769  2.86575590  8.59726769
  10.03014564  4.29863385 10.03014564
   5.73151180  0.00000000 14.32877949
   7.16438974  1.43287795 15.76165744
   5.73151180  2.86575590 11.46302359
   7.16438974  4.29863385 12.89590154
   8.59726769  0.00000000 11.46302359
  10.03014564  1.43287795 12.89590154
   8.59726769  2.86575590 14.32877949
  10.03014564  4.29863385 15.76165744
   5.73151180  5.73151180  2.86575590
   7.16438974  7.16438974  4.29863385
   5.73151180  8.59726769  0.00000000
   7.16438974 10.03014564  1.43287795
   8.59726769  5.73151180  0.00000000
  10.03014564  7.16438974  1.43287795
   8.59726769  8.59726769  2.86575590
  10.03014564 10.03014564  4.29863385
   5.73151180  5.73151180  8.59726769
   7.16438974  7.16438974 10.03014564
   5.73151180  8.59726769  5.73151180
   7.16438974 10.03014564  7.16438974
   8.59726769  5.73151180  5.73151180
  10.03014564  7.16438974  7.16438974
   8.59726769  8.59726769  8.59726769
  10.03014564 10.03014564 10.03014564
   5.73151180  5.73151180 14.32877949
   7.16438974  7.16438974 15.76165744
   5.73151180  8.59726769 11.46302359
   7.16438974 10.03014564 12.89590154
   8.59726769  5.73151180 11.46302359
  10.03014564  7.16438974 12.89590154
   8.59726769  8.59726769 14.32877949
  10.03014564 10.03014564 15.76165744
   5.73151180 11.46302359  2.86575590
   7.16438974 12.89590154  4.29863385
   5.73151180 14.32877949  0.00000000
   7.16438974 15.76165744  1.43287795
   8.59726769 11.46302359  0.00000000
  10.03014564 12.89590154  1.43287795
   8.59726769 14.32877949  2.86575590
  10.03014564 15.76165744  4.29863385
   5.73151180 11.46302359  8.59726769
   7.16438974 12.89590154 10.03014564
   5.73151180 14.32877949  5.73151180
   7.16438974 15.76165744  7.16438974
   8.59726769 11.46302359  5.73151180
  10.03014564 12.89590154  7.16438974
   8.59726769 14.32877949  8.59726769
  10.03014564 15.76165744 10.03014564
   5.73151180 11.46302359 14.32877949
   7.16438974 12.89590154 15.76165744
   5.73151180 14.32877949 11.46302359
   7.16438974 15.76165744 12.89590154
   8.59726769 11.46302359 11.46302359
  10.03014564 12.89590154 12.89590154
   8.59726769 14.32877949 14.32877949
  10.03014564 15.76165744 15.76165744
  11.46302359  0.00000000  2.86575590
  12.89590154  1.43287795  4.29863385
  11.46302359  2.86575590  0.00000000
  12.89590154  4.29863385  1.43287795
  14.32877949  0.00000000  0.00000000
  15.76165744  1.43287795  1.43287795
  14.32877949  2.86575590  2.86575590
  15.76165744  4.29863385  4.29863385
  11.46302359  0.00000000  8.59726769
  12.89590154  1.43287795 10.03014564
  11.46302359  2.86575590  5.73151180
  12.89590154  4.29863385  7.16438974
  14.32877949  0.00000000  5.73151180
  15.76165744  1.43287795  7.16438974
  14.32877949  2.86575590  8.59726769
  15.76165744  4.29863385 10.03014564
  11.46302359  0.00000000 14.32877949
  12.89590154  1.43287795 15.76165744
  11.46302359  2.86575590 11.46302359
  12.89590154  4.29863385 12.89590154
  14.32877949  0.00000000 11.46302359
  15.76165744  1.43287795 12.89590154
  14.32877949  2.86575590 14.32877949
  15.76165744  4.29863385 15.76165744
  11.46302359  5.73151180  2.86575590
  12.89590154  7.16438974  4.29863385
  11.46302359  8.59726769  0.00000000
  12.89590154 10.03014564  1.43287795
  14.32877949  5.73151180  0.00000000
  15.76165744  7.16438974  1.43287795
  14.32877949  8.59726769  2.86575590
  15.76165744 10.03014564  4.29863385
  11.46302359  5.73151180  8.59726769
  12.89590154  7.16438974 10.03014564
  11.46302359  8.59726769  5.73151180
  12.89590154 10.03014564  7.16438974
  14.32877949  5.73151180  5.73151180
  15.76165744  7.16438974  7.16438974
  14.32877949  8.59726769  8.59726769
  15.76165744 10.03014564 10.03014564
  11.46302359  5.73151180 14.32877949
  12.89590154  7.16438974 15.76165744
  11.46302359  8.59726769 11.46302359
  12.89590154 10.03014564 12.89590154
  14.32877949  5.73151180 11.46302359
  15.76165744  7.16438974 12.89590154
  14.32877949  8.59726769 14.32877949
  15.76165744 10.03014564 15.76165744
  11.46302359 11.46302359  2.86575590
  12.89590154 12.89590154  4.29863385
  11.46302359 14.32877949  0.00000000
  12.89590154 15.76165744  1.43287795
  14.32877949 11.46302359  0.00000000
  15.76165744 12.89590154  1.43287795
  14.32877949 14.32877949  2.86575590
  15.76165744 15.76165744  4.29863385
  11.46302359 11.46302359  8.59726769
  12.89590154 12.89590154 10.03014564
  11.46302359 14.32877949  5.73151180
  12.89590154 15.76165744  7.16438974
  14.32877949 11.46302359  5.73151180
  15.76165744 12.89590154  7.16438974
  14.32877949 14.32877949  8.59726769
  15.76165744 15.76165744 10.03014564
  11.46302359 11.46302359 14.32877949
  12.89590154 12.89590154 15.76165744
  11.46302359 14.32877949 11.46302359
  12.89590154 15.76165744 12.89590154
  14.32877949 11.46302359 11.46302359
  15.76165744 12.89590154 12.89590154
  14.32877949 14.32877949 14.32877949
  15.76165744 15.76165744 15.76165744



--------------------------------------------------------------------------------------------------------


 k-point   1 :   0.0000 0.0000 0.0000  plane waves:   92349

 maximum and minimum number of plane-waves per node :     92349    92349

 maximum number of plane-waves:     92349
 maximum index in each direction: 
   IXMAX=   28   IYMAX=   28   IZMAX=   28
   IXMIN=  -28   IYMIN=  -28   IZMIN=  -28


 serial   3D FFT for wavefunctions
 parallel 3D FFT for charge:
    minimum data exchange during FFTs selected (reduces bandwidth)


 total amount of memory used by VASP MPI-rank0  2835996. kBytes
=======================================================================

   base      :      30000. kBytes
   nonlr-proj:     160017. kBytes
   fftplans  :     827548. kBytes
   grid      :     418467. kBytes
   one-center:       3359. kBytes
   wavefun   :    1396605. kBytes

     INWAV:  cpu time      0.0001: real time      0.0001
 Broyden mixing: mesh for mixing (old mesh)
   NGX = 57   NGY = 57   NGZ = 57
  (NGX  =224   NGY  =224   NGZ  =224)
  gives a total of 185193 points

 initial charge density was supplied:
 charge density of overlapping atoms calculated
 number of electron    3023.0000000 magnetization 
 keeping initial charge density in first step


--------------------------------------------------------------------------------------------------------


 Maximum index for non-local projection operator         4220
 Maximum index for augmentation-charges        40704 (set IRDMAX)


--------------------------------------------------------------------------------------------------------


 First call to EWALD:  gamma=   0.103
 Maximum number of real-space cells 3x 3x 3
 Maximum number of reciprocal cells 3x 3x 3

    FEWALD:  cpu time      0.4806: real time      0.4812
