    2    2    1    1
  0.2370191E+02  0.4062338E-09  0.4062338E-09  0.4062338E-09  0.5000000E-15
   1.0000000000000000E-004
  CAR 
 unknown system                          
     28    141     18
 
  0.0000000E+00  0.0000000E+00  0.0000000E+00  0.1000000E-02
      1        -23.688269   1.000000
      2        -23.688269   1.000000
      3        -23.688266   1.000000
      4        -23.654598   1.000000
      5        -23.654598   1.000000
      6        -23.469946   1.000000
      7        -23.469946   1.000000
      8        -23.469943   1.000000
      9        -23.457254   1.000000
     10        -23.457253   1.000000
     11         -9.464356   1.000000
     12          4.243453   1.000000
     13          4.243499   1.000000
     14          4.243499   1.000000
     15          4.633863   0.000000
     16          7.438963   0.000000
     17          7.438978   0.000000
     18          7.438978   0.000000
 
  0.1000000E+00  0.0000000E+00  0.0000000E+00  0.8000000E-02
      1        -23.693498   1.000000
      2        -23.693496   1.000000
      3        -23.686920   1.000000
      4        -23.647960   1.000000
      5        -23.647960   1.000000
      6        -23.477511   1.000000
      7        -23.477510   1.000000
      8        -23.471787   1.000000
      9        -23.451112   1.000000
     10        -23.451110   1.000000
     11         -9.334560   1.000000
     12          2.360863   1.000000
     13          4.019417   1.000000
     14          4.019456   1.000000
     15          5.680142   0.000000
     16          7.745846   0.000000
     17          7.745863   0.000000
     18          7.960741   0.000000
 
  0.2000000E+00  0.0000000E+00  0.0000000E+00  0.8000000E-02
      1        -23.701502   1.000000
      2        -23.701500   1.000000
      3        -23.683328   1.000000
      4        -23.635461   1.000000
      5        -23.635460   1.000000
      6        -23.487818   1.000000
      7        -23.487818   1.000000
      8        -23.475984   1.000000
      9        -23.443375   1.000000
     10        -23.443372   1.000000
     11         -8.952531   1.000000
     12          0.247698   1.000000
     13          3.569458   1.000000
     14          3.569493   1.000000
     15          5.578425   0.000000
     16          8.327760   0.000000
     17          8.327781   0.000000
     18          9.588661   0.000000
 
  0.3000000E+00  0.0000000E+00  0.0000000E+00  0.8000000E-02
      1        -23.707360   1.000000
      2        -23.707357   1.000000
      3        -23.678661   1.000000
      4        -23.625054   1.000000
      5        -23.625053   1.000000
      6        -23.495312   1.000000
      7        -23.495311   1.000000
      8        -23.481286   1.000000
      9        -23.438303   1.000000
     10        -23.438300   1.000000
     11         -8.350793   1.000000
     12         -1.669459   1.000000
     13          3.155166   1.000000
     14          3.155199   1.000000
     15          5.225661   0.000000
     16          8.670940   0.000000
     17          8.670963   0.000000
     18         11.471598   0.000000
 
  0.4000000E+00  0.0000000E+00  0.0000000E+00  0.8000000E-02
      1        -23.710319   1.000000
      2        -23.710316   1.000000
      3        -23.674634   1.000000
      4        -23.619329   1.000000
      5        -23.619328   1.000000
      6        -23.498898   1.000000
      7        -23.498897   1.000000
      8        -23.485584   1.000000
      9        -23.435813   1.000000
     10        -23.435809   1.000000
     11         -7.645376   1.000000
     12         -3.187887   1.000000
     13          2.883474   1.000000
     14          2.883506   1.000000
     15          4.974045   0.000000
     16          8.703169   0.000000
     17          8.703185   0.000000
     18         12.244936   0.000000
 
  0.5000000E+00  0.0000000E+00  0.0000000E+00  0.4000000E-02
      1        -23.711099   1.000000
      2        -23.711095   1.000000
      3        -23.672635   1.000000
      4        -23.617493   1.000000
      5        -23.617492   1.000000
      6        -23.499651   1.000000
      7        -23.499650   1.000000
      8        -23.487216   1.000000
      9        -23.435003   1.000000
     10        -23.434999   1.000000
     11         -7.250126   1.000000
     12         -3.857516   1.000000
     13          2.790100   1.000000
     14          2.790131   1.000000
     15          4.886633   0.000000
     16          8.676148   0.000000
     17          8.676153   0.000000
     18         12.133196   0.000000
 
  0.1000000E+00  0.1000000E+00  0.0000000E+00  0.6000000E-02
      1        -23.693332   1.000000
      2        -23.691923   1.000000
      3        -23.691922   1.000000
      4        -23.649792   1.000000
      5        -23.640662   1.000000
      6        -23.491864   1.000000
      7        -23.465303   1.000000
      8        -23.465301   1.000000
      9        -23.462039   1.000000
     10        -23.446541   1.000000
     11         -9.290841   1.000000
     12          2.306022   1.000000
     13          3.630036   1.000000
     14          3.630063   1.000000
     15          6.475383   0.000000
     16          6.957811   0.000000
     17          8.264160   0.000000
     18          8.264170   0.000000
 
  0.2000000E+00  0.1000000E+00  0.0000000E+00  0.2400000E-01
      1        -23.702564   1.000000
      2        -23.697841   1.000000
      3        -23.687681   1.000000
      4        -23.640858   1.000000
      5        -23.627058   1.000000
      6        -23.506218   1.000000
      7        -23.475192   1.000000
      8        -23.465386   1.000000
      9        -23.453027   1.000000
     10        -23.440547   1.000000
     11         -8.991084   1.000000
     12          0.705405   1.000000
     13          3.135379   1.000000
     14          3.191955   1.000000
     15          6.659420   0.000000
     16          7.214290   0.000000
     17          8.980817   0.000000
     18          9.348953   0.000000
 
  0.3000000E+00  0.1000000E+00  0.0000000E+00  0.2400000E-01
      1        -23.711303   1.000000
      2        -23.704445   1.000000
      3        -23.679614   1.000000
      4        -23.629547   1.000000
      5        -23.615121   1.000000
      6        -23.515844   1.000000
      7        -23.486024   1.000000
      8        -23.472924   1.000000
      9        -23.444502   1.000000
     10        -23.433324   1.000000
     11         -8.456274   1.000000
     12         -1.140965   1.000000
     13          2.652474   1.000000
     14          2.746209   1.000000
     15          6.323261   0.000000
     16          7.937036   0.000000
     17          9.403844   0.000000
     18         10.293468   0.000000
 
  0.4000000E+00  0.1000000E+00  0.0000000E+00  0.2400000E-01
      1        -23.716874   1.000000
      2        -23.709305   1.000000
      3        -23.670707   1.000000
      4        -23.620039   1.000000
      5        -23.609680   1.000000
      6        -23.517681   1.000000
      7        -23.495240   1.000000
      8        -23.482876   1.000000
      9        -23.438112   1.000000
     10        -23.428298   1.000000
     11         -7.760236   1.000000
     12         -2.759671   1.000000
     13          2.173554   1.000000
     14          2.543265   1.000000
     15          6.017117   0.000000
     16          8.322156   0.000000
     17          9.373640   0.000000
     18         11.367324   0.000000
 
  0.5000000E+00  0.1000000E+00  0.0000000E+00  0.2400000E-01
      1        -23.718841   1.000000
      2        -23.712460   1.000000
      3        -23.664424   1.000000
      4        -23.613265   1.000000
      5        -23.611413   1.000000
      6        -23.511277   1.000000
      7        -23.503218   1.000000
      8        -23.491672   1.000000
      9        -23.433546   1.000000
     10        -23.426841   1.000000
     11         -7.182898   1.000000
     12         -3.769071   1.000000
     13          1.858611   1.000000
     14          2.548950   1.000000
     15          5.851926   0.000000
     16          8.455029   0.000000
     17          9.165571   0.000000
     18         12.440448   0.000000
 
 -0.4000000E+00  0.1000000E+00  0.0000000E+00  0.2400000E-01
      1        -23.717279   1.000000
      2        -23.713858   1.000000
      3        -23.663846   1.000000
      4        -23.617210   1.000000
      5        -23.609784   1.000000
      6        -23.509067   1.000000
      7        -23.499862   1.000000
      8        -23.496169   1.000000
      9        -23.430916   1.000000
     10        -23.429471   1.000000
     11         -7.328252   1.000000
     12         -3.534545   1.000000
     13          1.750139   1.000000
     14          2.756265   1.000000
     15          5.855610   0.000000
     16          8.630087   0.000000
     17          8.975325   0.000000
     18         12.539186   0.000000
 
 -0.3000000E+00  0.1000000E+00  0.0000000E+00  0.2400000E-01
      1        -23.712917   1.000000
      2        -23.712356   1.000000
      3        -23.669514   1.000000
      4        -23.624392   1.000000
      5        -23.612059   1.000000
      6        -23.509793   1.000000
      7        -23.497439   1.000000
      8        -23.484359   1.000000
      9        -23.436055   1.000000
     10        -23.430893   1.000000
     11         -8.003504   1.000000
     12         -2.257493   1.000000
     13          1.874720   1.000000
     14          3.133039   1.000000
     15          6.020582   0.000000
     16          8.763231   0.000000
     17          8.820442   0.000000
     18         11.413929   0.000000
 
 -0.2000000E+00  0.1000000E+00  0.0000000E+00  0.2400000E-01
      1        -23.708760   1.000000
      2        -23.704521   1.000000
      3        -23.678423   1.000000
      4        -23.633158   1.000000
      5        -23.621742   1.000000
      6        -23.503336   1.000000
      7        -23.492987   1.000000
      8        -23.470216   1.000000
      9        -23.446367   1.000000
     10        -23.434348   1.000000
     11         -8.660209   1.000000
     12         -0.549395   1.000000
     13          2.264584   1.000000
     14          3.604824   1.000000
     15          6.281794   0.000000
     16          8.340822   0.000000
     17          8.569236   0.000000
     18         10.185295   0.000000
 
 -0.1000000E+00  0.1000000E+00  0.0000000E+00  0.1200000E-01
      1        -23.701402   1.000000
      2        -23.695783   1.000000
      3        -23.685806   1.000000
      4        -23.642829   1.000000
      5        -23.635774   1.000000
      6        -23.491366   1.000000
      7        -23.484635   1.000000
      8        -23.459985   1.000000
      9        -23.458229   1.000000
     10        -23.441185   1.000000
     11         -9.119948   1.000000
     12          1.188962   1.000000
     13          3.011781   1.000000
     14          3.998118   1.000000
     15          6.283087   0.000000
     16          7.825182   0.000000
     17          7.856630   0.000000
     18          9.172808   0.000000
 
  0.2000000E+00  0.2000000E+00  0.0000000E+00  0.6000000E-02
      1        -23.700516   1.000000
      2        -23.700515   1.000000
      3        -23.695435   1.000000
      4        -23.635281   1.000000
      5        -23.611177   1.000000
      6        -23.526697   1.000000
      7        -23.475545   1.000000
      8        -23.452797   1.000000
      9        -23.452795   1.000000
     10        -23.443440   1.000000
     11         -8.773367   1.000000
     12          0.231068   1.000000
     13          2.612195   1.000000
     14          2.612219   1.000000
     15          6.159501   0.000000
     16          7.701194   0.000000
     17          9.900582   0.000000
     18          9.900789   0.000000
 
  0.3000000E+00  0.2000000E+00  0.0000000E+00  0.2400000E-01
      1        -23.711263   1.000000
      2        -23.706075   1.000000
      3        -23.685534   1.000000
      4        -23.624261   1.000000
      5        -23.595934   1.000000
      6        -23.542615   1.000000
      7        -23.487012   1.000000
      8        -23.459669   1.000000
      9        -23.444179   1.000000
     10        -23.434845   1.000000
     11         -8.311763   1.000000
     12         -1.058760   1.000000
     13          2.002150   1.000000
     14          2.206290   1.000000
     15          6.258193   0.000000
     16          7.720803   0.000000
     17         10.130445   0.000000
     18         10.586472   0.000000
 
  0.4000000E+00  0.2000000E+00  0.0000000E+00  0.2400000E-01
      1        -23.721513   1.000000
      2        -23.711294   1.000000
      3        -23.670250   1.000000
      4        -23.612425   1.000000
      5        -23.587639   1.000000
      6        -23.549471   1.000000
      7        -23.499877   1.000000
      8        -23.475873   1.000000
      9        -23.436204   1.000000
     10        -23.423815   1.000000
     11         -7.652239   1.000000
     12         -2.493211   1.000000
     13          1.283615   1.000000
     14          2.002478   1.000000
     15          6.422713   0.000000
     16          8.422287   0.000000
     17          9.907353   0.000000
     18         10.687416   0.000000
 
  0.5000000E+00  0.2000000E+00  0.0000000E+00  0.2400000E-01
      1        -23.727832   1.000000
      2        -23.715266   1.000000
      3        -23.656020   1.000000
      4        -23.601754   1.000000
      5        -23.590333   1.000000
      6        -23.544072   1.000000
      7        -23.512440   1.000000
      8        -23.491146   1.000000
      9        -23.430005   1.000000
     10        -23.417008   1.000000
     11         -6.970429   1.000000
     12         -3.636155   1.000000
     13          0.723899   1.000000
     14          2.027218   1.000000
     15          6.402882   0.000000
     16          9.076939   0.000000
     17         10.419340   0.000000
     18         10.673129   0.000000
 
 -0.4000000E+00  0.2000000E+00  0.0000000E+00  0.2400000E-01
      1        -23.728907   1.000000
      2        -23.717646   1.000000
      3        -23.648616   1.000000
      4        -23.601823   1.000000
      5        -23.594273   1.000000
      6        -23.529034   1.000000
      7        -23.522754   1.000000
      8        -23.499985   1.000000
      9        -23.426184   1.000000
     10        -23.416391   1.000000
     11         -6.841318   1.000000
     12         -3.821111   1.000000
     13          0.432212   1.000000
     14          2.274054   1.000000
     15          6.495520   0.000000
     16          9.165180   0.000000
     17         10.068198   0.000000
     18         12.377300   0.000000
 
 -0.3000000E+00  0.2000000E+00  0.0000000E+00  0.2400000E-01
      1        -23.724324   1.000000
      2        -23.717810   1.000000
      3        -23.651613   1.000000
      4        -23.616062   1.000000
      5        -23.594887   1.000000
      6        -23.525437   1.000000
      7        -23.509818   1.000000
      8        -23.499563   1.000000
      9        -23.425412   1.000000
     10        -23.422527   1.000000
     11         -7.440643   1.000000
     12         -2.885076   1.000000
     13          0.487213   1.000000
     14          2.703646   1.000000
     15          6.709337   0.000000
     16          9.322487   0.000000
     17          9.630781   0.000000
     18         11.083655   0.000000
 
 -0.2000000E+00  0.2000000E+00  0.0000000E+00  0.1200000E-01
      1        -23.715043   1.000000
      2        -23.714738   1.000000
      3        -23.664645   1.000000
      4        -23.626163   1.000000
      5        -23.605928   1.000000
      6        -23.517404   1.000000
      7        -23.500929   1.000000
      8        -23.483001   1.000000
      9        -23.434563   1.000000
     10        -23.428075   1.000000
     11         -8.133916   1.000000
     12         -1.618599   1.000000
     13          1.041930   1.000000
     14          3.218703   1.000000
     15          6.838621   0.000000
     16          8.959971   0.000000
     17          9.090781   0.000000
     18         10.099837   0.000000
 
  0.3000000E+00  0.3000000E+00  0.0000000E+00  0.6000000E-02
      1        -23.710224   1.000000
      2        -23.710222   1.000000
      3        -23.687804   1.000000
      4        -23.612840   1.000000
      5        -23.575706   1.000000
      6        -23.565992   1.000000
      7        -23.496904   1.000000
      8        -23.452659   1.000000
      9        -23.438349   1.000000
     10        -23.438347   1.000000
     11         -7.922100   1.000000
     12         -1.760073   1.000000
     13          1.764539   1.000000
     14          1.764562   1.000000
     15          5.576773   0.000000
     16          7.152761   0.000000
     17         11.736327   0.000000
     18         11.757376   0.000000
 
  0.4000000E+00  0.3000000E+00  0.0000000E+00  0.2400000E-01
      1        -23.719196   1.000000
      2        -23.714574   1.000000
      3        -23.673309   1.000000
      4        -23.599629   1.000000
      5        -23.581496   1.000000
      6        -23.560607   1.000000
      7        -23.510379   1.000000
      8        -23.469504   1.000000
      9        -23.431718   1.000000
     10        -23.426339   1.000000
     11         -7.314212   1.000000
     12         -2.819240   1.000000
     13          1.136288   1.000000
     14          1.522193   1.000000
     15          5.799598   0.000000
     16          7.041098   0.000000
     17         11.661983   0.000000
     18         12.264787   0.000000
 
  0.5000000E+00  0.3000000E+00  0.0000000E+00  0.2400000E-01
      1        -23.729192   1.000000
      2        -23.717907   1.000000
      3        -23.653647   1.000000
      4        -23.586421   1.000000
      5        -23.584519   1.000000
      6        -23.556133   1.000000
      7        -23.525001   1.000000
      8        -23.490218   1.000000
      9        -23.426372   1.000000
     10        -23.415011   1.000000
     11         -6.591046   1.000000
     12         -3.835617   1.000000
     13          0.321268   1.000000
     14          1.514994   1.000000
     15          6.004949   0.000000
     16          8.188966   0.000000
     17         11.285680   0.000000
     18         12.089352   0.000000
 
 -0.4000000E+00  0.3000000E+00  0.0000000E+00  0.2400000E-01
      1        -23.734458   1.000000
      2        -23.720103   1.000000
      3        -23.641868   1.000000
      4        -23.576395   1.000000
      5        -23.574170   1.000000
      6        -23.564474   1.000000
      7        -23.537760   1.000000
      8        -23.501945   1.000000
      9        -23.423244   1.000000
     10        -23.409614   1.000000
     11         -6.227213   1.000000
     12         -4.268348   1.000000
     13         -0.219758   1.000000
     14          1.742531   1.000000
     15          6.185876   0.000000
     16         10.071478   0.000000
     17         11.074399   0.000000
     18         11.596157   0.000000
 
 -0.3000000E+00  0.3000000E+00  0.0000000E+00  0.1200000E-01
      1        -23.732804   1.000000
      2        -23.720185   1.000000
      3        -23.641200   1.000000
      4        -23.595637   1.000000
      5        -23.579178   1.000000
      6        -23.539256   1.000000
      7        -23.538036   1.000000
      8        -23.503432   1.000000
      9        -23.422750   1.000000
     10        -23.412039   1.000000
     11         -6.739295   1.000000
     12         -3.665335   1.000000
     13         -0.235004   1.000000
     14          2.169963   1.000000
     15          6.506895   0.000000
     16         10.768202   0.000000
     17         10.835505   0.000000
     18         11.014349   0.000000
 
  0.4000000E+00  0.4000000E+00  0.0000000E+00  0.6000000E-02
      1        -23.717455   1.000000
      2        -23.717453   1.000000
      3        -23.669364   1.000000
      4        -23.605502   1.000000
      5        -23.584870   1.000000
      6        -23.538375   1.000000
      7        -23.523934   1.000000
      8        -23.473329   1.000000
      9        -23.427201   1.000000
     10        -23.427199   1.000000
     11         -6.756659   1.000000
     12         -3.624778   1.000000
     13          1.227563   1.000000
     14          1.227584   1.000000
     15          5.360831   0.000000
     16          6.194692   0.000000
     17         13.553139   0.000000
     18         13.562926   0.000000
 
  0.5000000E+00  0.4000000E+00  0.0000000E+00  0.2400000E-01
      1        -23.724042   1.000000
      2        -23.719442   1.000000
      3        -23.651013   1.000000
      4        -23.617789   1.000000
      5        -23.570077   1.000000
      6        -23.539134   1.000000
      7        -23.525658   1.000000
      8        -23.492430   1.000000
      9        -23.423857   1.000000
     10        -23.419522   1.000000
     11         -6.032037   1.000000
     12         -4.500765   1.000000
     13          0.694936   1.000000
     14          1.166613   1.000000
     15          5.640802   0.000000
     16          6.401293   0.000000
     17         13.457059   0.000000
     18         13.798733   0.000000
 
 -0.4000000E+00  0.4000000E+00  0.0000000E+00  0.1200000E-01
      1        -23.732069   1.000000
      2        -23.720471   1.000000
      3        -23.639867   1.000000
      4        -23.603567   1.000000
      5        -23.560884   1.000000
      6        -23.550266   1.000000
      7        -23.538200   1.000000
      8        -23.503646   1.000000
      9        -23.422443   1.000000
     10        -23.411464   1.000000
     11         -5.619033   1.000000
     12         -4.898067   1.000000
     13         -0.015192   1.000000
     14          1.346995   1.000000
     15          5.836373   0.000000
     16          7.992036   0.000000
     17         12.811290   0.000000
     18         13.096640   0.000000
 
  0.5000000E+00  0.5000000E+00  0.0000000E+00  0.3000000E-02
      1        -23.720107   1.000000
      2        -23.720105   1.000000
      3        -23.641119   1.000000
      4        -23.641115   1.000000
      5        -23.554306   1.000000
      6        -23.554305   1.000000
      7        -23.502941   1.000000
      8        -23.502938   1.000000
      9        -23.423045   1.000000
     10        -23.423043   1.000000
     11         -5.308942   1.000000
     12         -5.308935   1.000000
     13          1.044913   1.000000
     14          1.044933   1.000000
     15          5.563445   0.000000
     16          5.563459   0.000000
     17         14.655733   0.000000
     18         14.763082   0.000000
 
  0.3000000E+00  0.2000000E+00  0.1000000E+00  0.2400000E-01
      1        -23.709032   1.000000
      2        -23.704986   1.000000
      3        -23.681705   1.000000
      4        -23.632296   1.000000
      5        -23.612388   1.000000
      6        -23.521645   1.000000
      7        -23.483761   1.000000
      8        -23.465776   1.000000
      9        -23.447291   1.000000
     10        -23.434602   1.000000
     11         -8.611500   1.000000
     12         -0.434755   1.000000
     13          2.007254   1.000000
     14          3.074870   1.000000
     15          7.092341   0.000000
     16          7.298296   0.000000
     17          9.613242   0.000000
     18          9.777318   0.000000
 
  0.4000000E+00  0.2000000E+00  0.1000000E+00  0.4800000E-01
      1        -23.716932   1.000000
      2        -23.712479   1.000000
      3        -23.668818   1.000000
      4        -23.622144   1.000000
      5        -23.600237   1.000000
      6        -23.531484   1.000000
      7        -23.493288   1.000000
      8        -23.481004   1.000000
      9        -23.435585   1.000000
     10        -23.427770   1.000000
     11         -8.011889   1.000000
     12         -1.896570   1.000000
     13          1.294573   1.000000
     14          2.679099   1.000000
     15          7.017286   0.000000
     16          8.008317   0.000000
     17          9.746421   0.000000
     18         10.267507   0.000000
 
  0.5000000E+00  0.2000000E+00  0.1000000E+00  0.4800000E-01
      1        -23.723773   1.000000
      2        -23.715846   1.000000
      3        -23.656848   1.000000
      4        -23.612401   1.000000
      5        -23.596090   1.000000
      6        -23.532076   1.000000
      7        -23.503398   1.000000
      8        -23.495280   1.000000
      9        -23.429376   1.000000
     10        -23.421568   1.000000
     11         -7.301771   1.000000
     12         -3.241397   1.000000
     13          0.951688   1.000000
     14          2.319203   1.000000
     15          6.825561   0.000000
     16          8.309617   0.000000
     17         10.037196   0.000000
     18         11.139839   0.000000
 
 -0.4000000E+00  0.2000000E+00  0.1000000E+00  0.2400000E-01
      1        -23.726329   1.000000
      2        -23.716879   1.000000
      3        -23.652038   1.000000
      4        -23.605887   1.000000
      5        -23.598435   1.000000
      6        -23.527174   1.000000
      7        -23.513517   1.000000
      8        -23.498921   1.000000
      9        -23.427803   1.000000
     10        -23.418921   1.000000
     11         -6.894845   1.000000
     12         -3.875110   1.000000
     13          0.851676   1.000000
     14          2.180744   1.000000
     15          6.753807   0.000000
     16          8.294493   0.000000
     17         10.086741   0.000000
     18         12.451454   0.000000
 
  0.4000000E+00  0.3000000E+00  0.1000000E+00  0.2400000E-01
      1        -23.715983   1.000000
      2        -23.715103   1.000000
      3        -23.673942   1.000000
      4        -23.612668   1.000000
      5        -23.580449   1.000000
      6        -23.558743   1.000000
      7        -23.498646   1.000000
      8        -23.471104   1.000000
      9        -23.432957   1.000000
     10        -23.429262   1.000000
     11         -7.779427   1.000000
     12         -2.087463   1.000000
     13          1.207650   1.000000
     14          1.927411   1.000000
     15          6.507283   0.000000
     16          7.616314   0.000000
     17         10.067188   0.000000
     18         11.604929   0.000000
 
  0.5000000E+00  0.3000000E+00  0.1000000E+00  0.4800000E-01
      1        -23.725943   1.000000
      2        -23.719138   1.000000
      3        -23.655554   1.000000
      4        -23.600670   1.000000
      5        -23.573382   1.000000
      6        -23.563988   1.000000
      7        -23.512445   1.000000
      8        -23.490043   1.000000
      9        -23.425991   1.000000
     10        -23.418981   1.000000
     11         -7.079232   1.000000
     12         -3.218622   1.000000
     13          0.542698   1.000000
     14          1.607393   1.000000
     15          6.878643   0.000000
     16          8.400913   0.000000
     17          9.673924   0.000000
     18         12.011426   0.000000
 
 -0.4000000E+00  0.3000000E+00  0.1000000E+00  0.4800000E-01
      1        -23.732020   1.000000
      2        -23.721210   1.000000
      3        -23.641836   1.000000
      4        -23.591196   1.000000
      5        -23.575732   1.000000
      6        -23.558237   1.000000
      7        -23.526485   1.000000
      8        -23.502870   1.000000
      9        -23.422805   1.000000
     10        -23.412301   1.000000
     11         -6.482115   1.000000
     12         -4.033174   1.000000
     13          0.104030   1.000000
     14          1.549585   1.000000
     15          7.000949   0.000000
     16          9.125953   0.000000
     17         10.354297   0.000000
     18         11.785185   0.000000
 
 -0.3000000E+00  0.3000000E+00  0.1000000E+00  0.4800000E-01
      1        -23.731595   1.000000
      2        -23.721559   1.000000
      3        -23.640103   1.000000
      4        -23.597005   1.000000
      5        -23.577682   1.000000
      6        -23.550401   1.000000
      7        -23.526199   1.000000
      8        -23.505000   1.000000
      9        -23.421893   1.000000
     10        -23.413060   1.000000
     11         -6.670444   1.000000
     12         -3.786786   1.000000
     13         -0.016825   1.000000
     14          1.791225   1.000000
     15          7.238063   0.000000
     16          8.967219   0.000000
     17         10.623078   0.000000
     18         11.801650   0.000000
 
 -0.2000000E+00  0.3000000E+00  0.1000000E+00  0.2400000E-01
      1        -23.724951   1.000000
      2        -23.719756   1.000000
      3        -23.651231   1.000000
      4        -23.611755   1.000000
      5        -23.585209   1.000000
      6        -23.544204   1.000000
      7        -23.504532   1.000000
      8        -23.500123   1.000000
      9        -23.423754   1.000000
     10        -23.421571   1.000000
     11         -7.367497   1.000000
     12         -2.830763   1.000000
     13          0.330610   1.000000
     14          2.239088   1.000000
     15          7.498348   0.000000
     16          8.501031   0.000000
     17          9.571035   0.000000
     18         11.277466   0.000000
 
  0.5000000E+00  0.4000000E+00  0.1000000E+00  0.2400000E-01
      1        -23.722225   1.000000
      2        -23.721994   1.000000
      3        -23.656673   1.000000
      4        -23.596204   1.000000
      5        -23.585619   1.000000
      6        -23.545936   1.000000
      7        -23.524829   1.000000
      8        -23.486657   1.000000
      9        -23.422247   1.000000
     10        -23.422175   1.000000
     11         -6.651457   1.000000
     12         -3.724281   1.000000
     13          0.759013   1.000000
     14          1.106183   1.000000
     15          6.248137   0.000000