       N       E                     dE             d eps       ncg     rms          ort
DAV:   1    -0.765025763595E+03   -0.76503E+03   -0.14259E+04  2538   0.436E+03
DAV:   2    -0.920195409743E+03   -0.15517E+03   -0.15248E+03  2538   0.535E+02
DAV:   3    -0.939822147593E+03   -0.19627E+02   -0.19506E+02  2538   0.143E+02
DAV:   4    -0.940373722409E+03   -0.55157E+00   -0.55081E+00  2538   0.271E+01
DAV:   5    -0.108287924415E+02    0.92954E+03   -0.68529E+00  2538   0.466E+01
SDA:   6    -0.106191397865E+02    0.20965E+00   -0.68529E+00  2538   0.431E+00 0.000E+00
CGA:   7    -0.106776242916E+02   -0.58485E-01   -0.58364E-01  2538   0.101E+00 0.220E-03
CGA:   8    -0.107005439823E+02   -0.22920E-01   -0.22917E-01  2538   0.140E-01 0.132E-03
CGA:   9    -0.107045922471E+02   -0.40483E-02   -0.40477E-02  2538   0.844E-02 0.472E-05
CGA:  10    -0.107064802633E+02   -0.18880E-02   -0.18879E-02  2538   0.386E-02 0.975E-05
CGA:  11    -0.107075695065E+02   -0.10892E-02   -0.10898E-02  2538   0.165E-02-0.595E-05
CGA:  12    -0.107079815617E+02   -0.41206E-03   -0.41201E-03  2538   0.527E-03 0.124E-05
CGA:  13    -0.107081053067E+02   -0.12375E-03   -0.12362E-03  2538   0.117E-03 0.492E-05
CGA:  14    -0.107081308788E+02   -0.25572E-04   -0.25570E-04  2538   0.329E-04 0.329E-06
CGA:  15    -0.107081380375E+02   -0.71587E-05   -0.71561E-05  2538   0.889E-05 0.448E-06
CGA:  16    -0.107081402909E+02   -0.22534E-05   -0.22670E-05  2538   0.273E-05-0.371E-06
CGA:  17    -0.107081408859E+02   -0.59499E-06   -0.59395E-06  2538   0.690E-06 0.600E-07
   1 F= -.10708141E+02 E0= -.10708141E+02  d E =-.236771E-10
