PROCAR lm decomposed
# of k-points:  141         # of bands:   18         # of ions:    2

 k-point     1 :    0.00000000 0.00000000 0.00000000     weight = 0.00100000

band     1 # energy  -23.68826898 # occ.  2.00000000
 
ion      s     py     pz     px    dxy    dyz    dz2    dxz  x2-y2    tot
    1  0.000  0.000  0.000  0.000  0.124  0.059  0.000  0.314  0.000  0.497
    2  0.000  0.000  0.000  0.000  0.124  0.059  0.000  0.314  0.000  0.497
tot    0.000  0.000  0.000  0.000  0.248  0.117  0.000  0.628  0.000  0.994
 
band     2 # energy  -23.68826864 # occ.  2.00000000
 
ion      s     py     pz     px    dxy    dyz    dz2    dxz  x2-y2    tot
    1  0.000  0.000  0.000  0.000  0.198  0.296  0.000  0.002  0.000  0.497
    2  0.000  0.000  0.000  0.000  0.198  0.296  0.000  0.002  0.000  0.497
tot    0.000  0.000  0.000  0.000  0.396  0.593  0.000  0.004  0.000  0.994
 
band     3 # energy  -23.68826644 # occ.  2.00000000
 
ion      s     py     pz     px    dxy    dyz    dz2    dxz  x2-y2    tot
    1  0.000  0.000  0.000  0.000  0.175  0.142  0.000  0.180  0.000  0.497
    2  0.000  0.000  0.000  0.000  0.175  0.142  0.000  0.180  0.000  0.497
tot    0.000  0.000  0.000  0.000  0.349  0.283  0.000  0.361  0.000  0.994
 
band     4 # energy  -23.65459813 # occ.  2.00000000
 
ion      s     py     pz     px    dxy    dyz    dz2    dxz  x2-y2    tot
    1  0.000  0.000  0.000  0.000  0.000  0.000  0.487  0.000  0.009  0.496
    2  0.000  0.000  0.000  0.000  0.000  0.000  0.487  0.000  0.009  0.496
tot    0.000  0.000  0.000  0.000  0.000  0.000  0.975  0.000  0.018  0.993
 
band     5 # energy  -23.65459809 # occ.  2.00000000
 
ion      s     py     pz     px    dxy    dyz    dz2    dxz  x2-y2    tot
    1  0.000  0.000  0.000  0.000  0.000  0.000  0.009  0.000  0.487  0.496
    2  0.000  0.000  0.000  0.000  0.000  0.000  0.009  0.000  0.487  0.496
tot    0.000  0.000  0.000  0.000  0.000  0.000  0.018  0.000  0.975  0.993
 
band     6 # energy  -23.46994619 # occ.  2.00000000
 
ion      s     py     pz     px    dxy    dyz    dz2    dxz  x2-y2    tot
    1  0.000  0.000  0.000  0.000  0.121  0.058  0.000  0.318  0.000  0.498
    2  0.000  0.000  0.000  0.000  0.121  0.058  0.000  0.318  0.000  0.498
tot    0.000  0.000  0.000  0.000  0.243  0.116  0.000  0.637  0.000  0.996
 
band     7 # energy  -23.46994586 # occ.  2.00000000
 
ion      s     py     pz     px    dxy    dyz    dz2    dxz  x2-y2    tot
    1  0.000  0.000  0.000  0.000  0.203  0.293  0.000  0.002  0.000  0.498
    2  0.000  0.000  0.000  0.000  0.203  0.293  0.000  0.002  0.000  0.498
tot    0.000  0.000  0.000  0.000  0.405  0.585  0.000  0.005  0.000  0.996
 
band     8 # energy  -23.46994315 # occ.  2.00000000
 
ion      s     py     pz     px    dxy    dyz    dz2    dxz  x2-y2    tot
    1  0.000  0.000  0.000  0.000  0.174  0.147  0.000  0.177  0.000  0.498
    2  0.000  0.000  0.000  0.000  0.174  0.147  0.000  0.177  0.000  0.498
tot    0.000  0.000  0.000  0.000  0.348  0.294  0.000  0.354  0.000  0.996
 
band     9 # energy  -23.45725350 # occ.  2.00000000
 
ion      s     py     pz     px    dxy    dyz    dz2    dxz  x2-y2    tot
    1  0.000  0.000  0.000  0.000  0.000  0.000  0.486  0.000  0.012  0.499
    2  0.000  0.000  0.000  0.000  0.000  0.000  0.486  0.000  0.012  0.499
tot    0.000  0.000  0.000  0.000  0.000  0.000  0.973  0.000  0.025  0.998
 
band    10 # energy  -23.45725347 # occ.  2.00000000
 
ion      s     py     pz     px    dxy    dyz    dz2    dxz  x2-y2    tot
    1  0.000  0.000  0.000  0.000  0.000  0.000  0.012  0.000  0.486  0.499
    2  0.000  0.000  0.000  0.000  0.000  0.000  0.012  0.000  0.486  0.499
tot    0.000  0.000  0.000  0.000  0.000  0.000  0.025  0.000  0.973  0.998
 
band    11 # energy   -9.46435599 # occ.  2.00000000
 
ion      s     py     pz     px    dxy    dyz    dz2    dxz  x2-y2    tot
    1  0.309  0.000  0.000  0.000  0.000  0.000  0.000  0.000  0.000  0.309
    2  0.309  0.000  0.000  0.000  0.000  0.000  0.000  0.000  0.000  0.309
tot    0.617  0.000  0.000  0.000  0.000  0.000  0.000  0.000  0.000  0.617
 
band    12 # energy    4.24345294 # occ.  1.99999998
 
ion      s     py     pz     px    dxy    dyz    dz2    dxz  x2-y2    tot
    1  0.000  0.101  0.098  0.100  0.011  0.012  0.000  0.012  0.000  0.334
    2  0.000  0.101  0.098  0.100  0.011  0.012  0.000  0.012  0.000  0.334
tot    0.000  0.202  0.196  0.201  0.023  0.024  0.000  0.024  0.000  0.669
 
band    13 # energy    4.24349920 # occ.  1.99999998
 
ion      s     py     pz     px    dxy    dyz    dz2    dxz  x2-y2    tot
    1  0.000  0.053  0.201  0.045  0.024  0.005  0.000  0.006  0.000  0.334
    2  0.000  0.053  0.201  0.045  0.024  0.005  0.000  0.006  0.000  0.334
tot    0.000  0.106  0.402  0.091  0.047  0.011  0.000  0.012  0.000  0.669
 
band    14 # energy    4.24349946 # occ.  1.99999998
 
ion      s     py     pz     px    dxy    dyz    dz2    dxz  x2-y2    tot
    1  0.000  0.145  0.000  0.154  0.000  0.018  0.000  0.017  0.000  0.334
    2  0.000  0.145  0.000  0.154  0.000  0.018  0.000  0.017  0.000  0.334
tot    0.000  0.291  0.001  0.307  0.000  0.036  0.000  0.034  0.000  0.669
 
band    15 # energy    4.63386322 # occ.  0.00000005
 
ion      s     py     pz     px    dxy    dyz    dz2    dxz  x2-y2    tot
    1  0.433  0.000  0.000  0.000  0.000  0.000  0.000  0.000  0.000  0.433
    2  0.433  0.000  0.000  0.000  0.000  0.000  0.000  0.000  0.000  0.433
tot    0.866  0.000  0.000  0.000  0.000  0.000  0.000  0.000  0.000  0.866
 
band    16 # energy    7.43896272 # occ.  0.00000000
 
ion      s     py     pz     px    dxy    dyz    dz2    dxz  x2-y2    tot
    1  0.000  0.081  0.058  0.065  0.012  0.013  0.000  0.017  0.000  0.247
    2  0.000  0.081  0.058  0.065  0.012  0.013  0.000  0.017  0.000  0.247
tot    0.000  0.162  0.117  0.129  0.024  0.027  0.000  0.034  0.000  0.493
 
band    17 # energy    7.43897786 # occ.  0.00000000
 
ion      s     py     pz     px    dxy    dyz    dz2    dxz  x2-y2    tot
    1  0.000  0.072  0.093  0.039  0.019  0.008  0.000  0.015  0.000  0.247
    2  0.000  0.072  0.093  0.039  0.019  0.008  0.000  0.015  0.000  0.247
tot    0.000  0.144  0.187  0.078  0.039  0.016  0.000  0.030  0.000  0.493
 
band    18 # energy    7.43897806 # occ.  0.00000000
 
ion      s     py     pz     px    dxy    dyz    dz2    dxz  x2-y2    tot
    1  0.000  0.051  0.052  0.101  0.011  0.021  0.000  0.011  0.000  0.247
    2  0.000  0.051  0.052  0.101  0.011  0.021  0.000  0.011  0.000  0.247
tot    0.000  0.102  0.105  0.201  0.022  0.042  0.000  0.021  0.000  0.493
 

 k-point     2 :    0.10000000 0.00000000 0.00000000     weight = 0.00800000

band     1 # energy  -23.69349849 # occ.  2.00000000
 
ion      s     py     pz     px    dxy    dyz    dz2    dxz  x2-y2    tot
    1  0.000  0.000  0.000  0.000  0.237  0.000  0.029  0.222  0.008  0.497
    2  0.000  0.000  0.000  0.000  0.237  0.000  0.029  0.222  0.008  0.497
tot    0.000  0.000  0.000  0.000  0.475  0.001  0.058  0.443  0.017  0.994
 
band     2 # energy  -23.69349625 # occ.  2.00000000
 
ion      s     py     pz     px    dxy    dyz    dz2    dxz  x2-y2    tot
    1  0.000  0.000  0.000  0.000  0.069  0.306  0.008  0.085  0.029  0.497
    2  0.000  0.000  0.000  0.000  0.069  0.306  0.008  0.085  0.029  0.497
tot    0.000  0.000  0.000  0.000  0.138  0.612  0.017  0.169  0.058  0.994
 
band     3 # energy  -23.68691990 # occ.  2.00000000
 
ion      s     py     pz     px    dxy    dyz    dz2    dxz  x2-y2    tot
    1  0.000  0.000  0.000  0.000  0.166  0.165  0.000  0.166  0.000  0.497
    2  0.000  0.000  0.000  0.000  0.166  0.165  0.000  0.166  0.000  0.497
tot    0.000  0.000  0.000  0.000  0.331  0.331  0.000  0.331  0.000  0.994
 
band     4 # energy  -23.64795973 # occ.  2.00000000
 
ion      s     py     pz     px    dxy    dyz    dz2    dxz  x2-y2    tot
    1  0.000  0.000  0.000  0.000  0.013  0.023  0.233  0.002  0.226  0.497
    2  0.000  0.000  0.000  0.000  0.013  0.023  0.233  0.002  0.226  0.497
tot    0.000  0.000  0.000  0.000  0.025  0.046  0.467  0.004  0.452  0.993
 
band     5 # energy  -23.64795970 # occ.  2.00000000
 
ion      s     py     pz     px    dxy    dyz    dz2    dxz  x2-y2    tot
    1  0.000  0.000  0.000  0.000  0.012  0.002  0.226  0.023  0.233  0.497
    2  0.000  0.000  0.000  0.000  0.012  0.002  0.226  0.023  0.233  0.497
tot    0.000  0.000  0.000  0.000  0.024  0.004  0.452  0.046  0.467  0.993
 
band     6 # energy  -23.47751107 # occ.  2.00000000
 
ion      s     py     pz     px    dxy    dyz    dz2    dxz  x2-y2    tot
    1  0.000  0.000  0.000  0.000  0.160  0.000  0.142  0.153  0.043  0.498
    2  0.000  0.000  0.000  0.000  0.160  0.000  0.142  0.153  0.043  0.498
tot    0.000  0.000  0.000  0.000  0.321  0.000  0.284  0.305  0.086  0.996
 
band     7 # energy  -23.47750963 # occ.  2.00000000
 
ion      s     py     pz     px    dxy    dyz    dz2    dxz  x2-y2    tot
    1  0.000  0.000  0.000  0.000  0.048  0.209  0.043  0.056  0.142  0.498
    2  0.000  0.000  0.000  0.000  0.048  0.209  0.043  0.056  0.142  0.498
tot    0.000  0.000  0.000  0.000  0.097  0.417  0.086  0.112  0.284  0.996
 
band     8 # energy  -23.47178727 # occ.  2.00000000
 
ion      s     py     pz     px    dxy    dyz    dz2    dxz  x2-y2    tot
    1  0.000  0.000  0.000  0.000  0.166  0.166  0.000  0.166  0.000  0.498
    2  0.000  0.000  0.000  0.000  0.166  0.166  0.000  0.166  0.000  0.498
tot    0.000  0.000  0.000  0.000  0.332  0.332  0.000  0.332  0.000  0.996
 
band     9 # energy  -23.45111165 # occ.  2.00000000
 
ion      s     py     pz     px    dxy    dyz    dz2    dxz  x2-y2    tot
    1  0.000  0.000  0.000  0.000  0.095  0.000  0.244  0.089  0.070  0.499
    2  0.000  0.000  0.000  0.000  0.095  0.000  0.244  0.089  0.070  0.499
tot    0.000  0.000  0.000  0.000  0.191  0.000  0.487  0.178  0.141  0.997
 
band    10 # energy  -23.45111034 # occ.  2.00000000
 
ion      s     py     pz     px    dxy    dyz    dz2    dxz  x2-y2    tot
    1  0.000  0.000  0.000  0.000  0.028  0.123  0.070  0.034  0.244  0.499
    2  0.000  0.000  0.000  0.000  0.028  0.123  0.070  0.034  0.244  0.499
tot    0.000  0.000  0.000  0.000  0.055  0.246  0.141  0.068  0.487  0.997
 
band    11 # energy   -9.33456007 # occ.  2.00000000
 
ion      s     py     pz     px    dxy    dyz    dz2    dxz  x2-y2    tot
    1  0.308  0.001  0.001  0.001  0.000  0.000  0.000  0.000  0.000  0.310
    2  0.308  0.001  0.001  0.001  0.000  0.000  0.000  0.000  0.000  0.310
tot    0.616  0.001  0.001  0.001  0.000  0.000  0.000  0.000  0.000  0.619
 
band    12 # energy    2.36086277 # occ.  2.00000000
 
ion      s     py     pz     px    dxy    dyz    dz2    dxz  x2-y2    tot
    1  0.177  0.054  0.054  0.054  0.007  0.007  0.000  0.007  0.000  0.357
    2  0.177  0.054  0.054  0.054  0.007  0.007  0.000  0.007  0.000  0.357
tot    0.353  0.107  0.107  0.107  0.013  0.013  0.000  0.013  0.000  0.715
 
band    13 # energy    4.01941728 # occ.  2.00000000
 
ion      s     py     pz     px    dxy    dyz    dz2    dxz  x2-y2    tot
    1  0.000  0.051  0.048  0.197  0.005  0.021  0.000  0.005  0.000  0.327
    2  0.000  0.051  0.048  0.197  0.005  0.021  0.000  0.005  0.000  0.327
tot    0.000  0.101  0.096  0.393  0.010  0.042  0.000  0.011  0.000  0.654
 
band    14 # energy    4.01945598 # occ.  2.00000000
 
ion      s     py     pz     px    dxy    dyz    dz2    dxz  x2-y2    tot
    1  0.000  0.146  0.149  0.000  0.016  0.000  0.000  0.016  0.000  0.327
    2  0.000  0.146  0.149  0.000  0.016  0.000  0.000  0.016  0.000  0.327
tot    0.000  0.293  0.298  0.000  0.032  0.000  0.000  0.031  0.000  0.654
 
band    15 # energy    5.68014248 # occ.  0.00000000
 
ion      s     py     pz     px    dxy    dyz    dz2    dxz  x2-y2    tot
    1  0.233  0.039  0.039  0.039  0.004  0.004  0.000  0.004  0.000  0.361
    2  0.233  0.039  0.039  0.039  0.004  0.004  0.000  0.004  0.000  0.361
tot    0.467  0.078  0.078  0.078  0.007  0.007  0.000  0.007  0.000  0.722
 
band    16 # energy    7.74584620 # occ.  0.00000000
 
ion      s     py     pz     px    dxy    dyz    dz2    dxz  x2-y2    tot
    1  0.000  0.045  0.026  0.137  0.006  0.029  0.000  0.009  0.001  0.254
    2  0.000  0.045  0.026  0.137  0.006  0.029  0.000  0.009  0.001  0.254
tot    0.000  0.090  0.053  0.275  0.011  0.058  0.000  0.019  0.002  0.508
 
band    17 # energy    7.74586266 # occ.  0.00000000
 
ion      s     py     pz     px    dxy    dyz    dz2    dxz  x2-y2    tot
    1  0.000  0.094  0.113  0.002  0.024  0.000  0.001  0.020  0.000  0.254
    2  0.000  0.094  0.113  0.002  0.024  0.000  0.001  0.020  0.000  0.254
tot    0.000  0.188  0.226  0.004  0.048  0.001  0.002  0.040  0.000  0.508
 
band    18 # energy    7.96074149 # occ.  0.00000000
 
ion      s     py     pz     px    dxy    dyz    dz2    dxz  x2-y2    tot
    1  0.038  0.065  0.065  0.065  0.014  0.014  0.000  0.014  0.000  0.275
    2  0.038  0.065  0.065  0.065  0.014  0.014  0.000  0.014  0.000  0.275
tot    0.077  0.129  0.129  0.129  0.028  0.028  0.000  0.028  0.000  0.550
 

 k-point     3 :    0.20000000 0.00000000 0.00000000     weight = 0.00800000

band     1 # energy  -23.70150245 # occ.  2.00000000
 
ion      s     py     pz     px    dxy    dyz    dz2    dxz  x2-y2    tot
    1  0.000  0.000  0.000  0.000  0.230  0.000  0.041  0.214  0.012  0.497
    2  0.000  0.000  0.000  0.000  0.230  0.000  0.041  0.214  0.012  0.497
tot    0.000  0.000  0.000  0.000  0.459  0.001  0.081  0.428  0.023  0.993
 
band     2 # energy  -23.70149998 # occ.  2.00000000
 
ion      s     py     pz     px    dxy    dyz    dz2    dxz  x2-y2    tot
    1  0.000  0.000  0.000  0.000  0.066  0.296  0.012  0.082  0.041  0.497
    2  0.000  0.000  0.000  0.000  0.066  0.296  0.012  0.082  0.041  0.497
tot    0.000  0.000  0.000  0.000  0.132  0.591  0.023  0.164  0.081  0.993
 
band     3 # energy  -23.68332847 # occ.  2.00000000
 
ion      s     py     pz     px    dxy    dyz    dz2    dxz  x2-y2    tot
    1  0.000  0.000  0.000  0.000  0.166  0.165  0.000  0.166  0.000  0.497
    2  0.000  0.000  0.000  0.000  0.166  0.165  0.000  0.166  0.000  0.497
tot    0.000  0.000  0.000  0.000  0.331  0.331  0.000  0.331  0.000  0.994
 
band     4 # energy  -23.63546081 # occ.  2.00000000
 
ion      s     py     pz     px    dxy    dyz    dz2    dxz  x2-y2    tot
    1  0.000  0.000  0.000  0.000  0.009  0.036  0.107  0.009  0.335  0.497
    2  0.000  0.000  0.000  0.000  0.009  0.036  0.107  0.009  0.335  0.497
tot    0.000  0.000  0.000  0.000  0.017  0.072  0.215  0.019  0.670  0.993
 
band     5 # energy  -23.63546044 # occ.  2.00000000
 
ion      s     py     pz     px    dxy    dyz    dz2    dxz  x2-y2    tot
    1  0.000  0.000  0.000  0.000  0.027  0.000  0.335  0.027  0.107  0.497
    2  0.000  0.000  0.000  0.000  0.027  0.000  0.335  0.027  0.107  0.497
tot    0.000  0.000  0.000  0.000  0.055  0.000  0.670  0.053  0.215  0.993
 
band     6 # energy  -23.48781849 # occ.  2.00000000
 
ion      s     py     pz     px    dxy    dyz    dz2    dxz  x2-y2    tot
    1  0.000  0.000  0.000  0.000  0.100  0.000  0.235  0.094  0.070  0.498
    2  0.000  0.000  0.000  0.000  0.100  0.000  0.235  0.094  0.070  0.498
tot    0.000  0.000  0.000  0.000  0.199  0.000  0.469  0.188  0.139  0.996
 
band     7 # energy  -23.48781799 # occ.  2.00000000
 
ion      s     py     pz     px    dxy    dyz    dz2    dxz  x2-y2    tot
    1  0.000  0.000  0.000  0.000  0.030  0.129  0.070  0.035  0.235  0.498
    2  0.000  0.000  0.000  0.000  0.030  0.129  0.070  0.035  0.235  0.498
tot    0.000  0.000  0.000  0.000  0.059  0.258  0.139  0.070  0.469  0.996
 
band     8 # energy  -23.47598401 # occ.  2.00000000
 
ion      s     py     pz     px    dxy    dyz    dz2    dxz  x2-y2    tot
    1  0.000  0.000  0.000  0.000  0.166  0.166  0.000  0.166  0.000  0.498
    2  0.000  0.000  0.000  0.000  0.166  0.166  0.000  0.166  0.000  0.498
tot    0.000  0.000  0.000  0.000  0.332  0.332  0.000  0.332  0.000  0.996
 
band     9 # energy  -23.44337475 # occ.  2.00000000
 
ion      s     py     pz     px    dxy    dyz    dz2    dxz  x2-y2    tot
    1  0.000  0.000  0.000  0.000  0.156  0.000  0.151  0.147  0.045  0.499
    2  0.000  0.000  0.000  0.000  0.156  0.000  0.151  0.147  0.045  0.499
tot    0.000  0.000  0.000  0.000  0.312  0.000  0.303  0.293  0.089  0.997
 
band    10 # energy  -23.44337241 # occ.  2.00000000
 
ion      s     py     pz     px    dxy    dyz    dz2    dxz  x2-y2    tot
    1  0.000  0.000  0.000  0.000  0.046  0.202  0.045  0.055  0.151  0.499
    2  0.000  0.000  0.000  0.000  0.046  0.202  0.045  0.055  0.151  0.499
tot    0.000  0.000  0.000  0.000  0.092  0.403  0.089  0.110  0.303  0.997
 
band    11 # energy   -8.95253114 # occ.  2.00000000
 
ion      s     py     pz     px    dxy    dyz    dz2    dxz  x2-y2    tot
    1  0.306  0.002  0.002  0.002  0.000  0.000  0.000  0.000  0.000  0.313
    2  0.306  0.002  0.002  0.002  0.000  0.000  0.000  0.000  0.000  0.313
tot    0.611  0.004  0.004  0.004  0.000  0.000  0.000  0.000  0.000  0.625
 
band    12 # energy    0.24769811 # occ.  2.00000000
 
ion      s     py     pz     px    dxy    dyz    dz2    dxz  x2-y2    tot
    1  0.183  0.047  0.047  0.047  0.005  0.005  0.000  0.005  0.000  0.338
    2  0.183  0.047  0.047  0.047  0.005  0.005  0.000  0.005  0.000  0.338
tot    0.367  0.094  0.094  0.094  0.010  0.010  0.000  0.010  0.000  0.677
 
band    13 # energy    3.56945832 # occ.  2.00000000
 
ion      s     py     pz     px    dxy    dyz    dz2    dxz  x2-y2    tot
    1  0.000  0.050  0.047  0.194  0.004  0.017  0.000  0.004  0.001  0.317
    2  0.000  0.050  0.047  0.194  0.004  0.017  0.000  0.004  0.001  0.317
tot    0.000  0.100  0.094  0.388  0.008  0.033  0.000  0.009  0.001  0.634
 
band    14 # energy    3.56949349 # occ.  2.00000000
 
ion      s     py     pz     px    dxy    dyz    dz2    dxz  x2-y2    tot
    1  0.000  0.144  0.147  0.000  0.013  0.000  0.001  0.012  0.000  0.317
    2  0.000  0.144  0.147  0.000  0.013  0.000  0.001  0.012  0.000  0.317
tot    0.000  0.288  0.294  0.000  0.025  0.000  0.001  0.025  0.000  0.634
 
band    15 # energy    5.57842466 # occ.  0.00000000
 
ion      s     py     pz     px    dxy    dyz    dz2    dxz  x2-y2    tot
    1  0.198  0.032  0.032  0.032  0.006  0.006  0.000  0.006  0.000  0.310
    2  0.198  0.032  0.032  0.032  0.006  0.006  0.000  0.006  0.000  0.310
tot    0.396  0.063  0.063  0.063  0.011  0.011  0.000  0.011  0.000  0.619
 
band    16 # energy    8.32775983 # occ.  0.00000000
 
ion      s     py     pz     px    dxy    dyz    dz2    dxz  x2-y2    tot
    1  0.000  0.032  0.037  0.138  0.008  0.029  0.002  0.007  0.005  0.258
    2  0.000  0.032  0.037  0.138  0.008  0.029  0.002  0.007  0.005  0.258
tot    0.000  0.064  0.075  0.276  0.016  0.058  0.004  0.013  0.010  0.516
 
band    17 # energy    8.32778130 # occ.  0.00000000
 
ion      s     py     pz     px    dxy    dyz    dz2    dxz  x2-y2    tot
    1  0.000  0.106  0.101  0.000  0.021  0.000  0.005  0.022  0.002  0.258
    2  0.000  0.106  0.101  0.000  0.021  0.000  0.005  0.022  0.002  0.258
tot    0.000  0.213  0.202  0.000  0.042  0.000  0.010  0.045  0.004  0.516
 
band    18 # energy    9.58866133 # occ.  0.00000000
 
ion      s     py     pz     px    dxy    dyz    dz2    dxz  x2-y2    tot
    1  0.084  0.063  0.063  0.063  0.011  0.011  0.000  0.011  0.000  0.306
    2  0.085  0.063  0.063  0.063  0.011  0.011  0.000  0.011  0.000  0.306
tot    0.169  0.126  0.126  0.126  0.022  0.022  0.000  0.022  0.000  0.612
 

 k-point     4 :    0.30000000 0.00000000 0.00000000     weight = 0.00800000

band     1 # energy  -23.70735989 # occ.  2.00000000
 
ion      s     py     pz     px    dxy    dyz    dz2    dxz  x2-y2    tot
    1  0.000  0.000  0.000  0.000  0.236  0.000  0.031  0.220  0.009  0.497
    2  0.000  0.000  0.000  0.000  0.236  0.000  0.031  0.220  0.009  0.497
tot    0.000  0.000  0.000  0.000  0.472  0.001  0.063  0.440  0.018  0.993
 
band     2 # energy  -23.70735705 # occ.  2.00000000
 
ion      s     py     pz     px    dxy    dyz    dz2    dxz  x2-y2    tot
    1  0.000  0.000  0.000  0.000  0.068  0.304  0.009  0.084  0.031  0.497
    2  0.000  0.000  0.000  0.000  0.068  0.304  0.009  0.084  0.031  0.497
tot    0.000  0.000  0.000  0.000  0.136  0.607  0.018  0.168  0.063  0.993
 
band     3 # energy  -23.67866136 # occ.  2.00000000
 
ion      s     py     pz     px    dxy    dyz    dz2    dxz  x2-y2    tot
    1  0.000  0.000  0.000  0.000  0.166  0.165  0.000  0.166  0.000  0.497
    2  0.000  0.000  0.000  0.000  0.166  0.165  0.000  0.165  0.000  0.497
tot    0.000  0.000  0.000  0.000  0.331  0.331  0.000  0.331  0.000  0.994
 
band     4 # energy  -23.62505386 # occ.  2.00000000
 
ion      s     py     pz     px    dxy    dyz    dz2    dxz  x2-y2    tot
    1  0.000  0.000  0.000  0.000  0.007  0.031  0.104  0.008  0.346  0.497
    2  0.000  0.000  0.000  0.000  0.007  0.031  0.104  0.008  0.346  0.497
tot    0.000  0.000  0.000  0.000  0.014  0.062  0.209  0.017  0.692  0.993
 
band     5 # energy  -23.62505308 # occ.  2.00000000
 
ion      s     py     pz     px    dxy    dyz    dz2    dxz  x2-y2    tot
    1  0.000  0.000  0.000  0.000  0.024  0.000  0.346  0.023  0.104  0.497
    2  0.000  0.000  0.000  0.000  0.024  0.000  0.346  0.023  0.104  0.497
tot    0.000  0.000  0.000  0.000  0.048  0.000  0.692  0.045  0.209  0.993
 
band     6 # energy  -23.49531163 # occ.  2.00000000
 
ion      s     py     pz     px    dxy    dyz    dz2    dxz  x2-y2    tot
    1  0.000  0.000  0.000  0.000  0.017  0.071  0.092  0.019  0.299  0.498
    2  0.000  0.000  0.000  0.000  0.017  0.071  0.092  0.019  0.299  0.498
tot    0.000  0.000  0.000  0.000  0.033  0.142  0.184  0.038  0.599  0.996
 
band     7 # energy  -23.49531143 # occ.  2.00000000
 
ion      s     py     pz     px    dxy    dyz    dz2    dxz  x2-y2    tot
    1  0.000  0.000  0.000  0.000  0.054  0.000  0.299  0.052  0.092  0.498
    2  0.000  0.000  0.000  0.000  0.054  0.000  0.299  0.052  0.092  0.498
tot    0.000  0.000  0.000  0.000  0.109  0.000  0.599  0.105  0.184  0.996
 
band     8 # energy  -23.48128575 # occ.  2.00000000
 
ion      s     py     pz     px    dxy    dyz    dz2    dxz  x2-y2    tot
    1  0.000  0.000  0.000  0.000  0.166  0.166  0.000  0.166  0.000  0.498
    2  0.000  0.000  0.000  0.000  0.166  0.166  0.000  0.166  0.000  0.498
tot    0.001  0.000  0.000  0.000  0.332  0.332  0.000  0.332  0.000  0.996
 
band     9 # energy  -23.43830288 # occ.  2.00000000
 
ion      s     py     pz     px    dxy    dyz    dz2    dxz  x2-y2    tot
    1  0.000  0.000  0.000  0.000  0.198  0.000  0.087  0.187  0.026  0.499
    2  0.000  0.000  0.000  0.000  0.198  0.000  0.087  0.187  0.026  0.499
tot    0.000  0.000  0.000  0.000  0.397  0.000  0.174  0.374  0.052  0.997
 
band    10 # energy  -23.43829970 # occ.  2.00000000
 
ion      s     py     pz     px    dxy    dyz    dz2    dxz  x2-y2    tot
    1  0.000  0.000  0.000  0.000  0.059  0.257  0.026  0.070  0.087  0.499
    2  0.000  0.000  0.000  0.000  0.059  0.257  0.026  0.070  0.087  0.499
tot    0.000  0.000  0.000  0.000  0.117  0.514  0.052  0.140  0.174  0.997
 
band    11 # energy   -8.35079337 # occ.  2.00000000
 
ion      s     py     pz     px    dxy    dyz    dz2    dxz  x2-y2    tot
    1  0.304  0.004  0.004  0.004  0.001  0.001  0.000  0.001  0.000  0.319
    2  0.304  0.004  0.004  0.004  0.001  0.001  0.000  0.001  0.000  0.319
tot    0.608  0.008  0.008  0.008  0.001  0.001  0.000  0.001  0.000  0.637
 
band    12 # energy   -1.66945922 # occ.  2.00000000
 
ion      s     py     pz     px    dxy    dyz    dz2    dxz  x2-y2    tot
    1  0.187  0.041  0.041  0.041  0.003  0.003  0.000  0.003  0.000  0.321
    2  0.187  0.041  0.041  0.041  0.003  0.003  0.000  0.003  0.000  0.321
tot    0.374  0.083  0.083  0.083  0.006  0.006  0.000  0.006  0.000  0.641
 
band    13 # energy    3.15516619 # occ.  2.00000000
 
ion      s     py     pz     px    dxy    dyz    dz2    dxz  x2-y2    tot
    1  0.000  0.050  0.047  0.194  0.003  0.012  0.000  0.003  0.001  0.311
    2  0.000  0.050  0.047  0.194  0.003  0.012  0.000  0.003  0.001  0.311
tot    0.000  0.100  0.094  0.388  0.006  0.025  0.001  0.006  0.003  0.622
 
band    14 # energy    3.15519918 # occ.  2.00000000
 
ion      s     py     pz     px    dxy    dyz    dz2    dxz  x2-y2    tot
    1  0.000  0.144  0.147  0.000  0.009  0.000  0.001  0.009  0.000  0.311
    2  0.000  0.144  0.147  0.000  0.009  0.000  0.001  0.009  0.000  0.311
tot    0.000  0.288  0.294  0.000  0.019  0.000  0.003  0.019  0.001  0.622
 
band    15 # energy    5.22566084 # occ.  0.00000000
 
ion      s     py     pz     px    dxy    dyz    dz2    dxz  x2-y2    tot
    1  0.201  0.025  0.025  0.025  0.007  0.007  0.000  0.007  0.000  0.296
    2  0.201  0.025  0.025  0.025  0.007  0.007  0.000  0.007  0.000  0.296
tot    0.401  0.050  0.050  0.050  0.014  0.014  0.000  0.014  0.000  0.591
 
band    16 # energy    8.67094011 # occ.  0.00000000
 
ion      s     py     pz     px    dxy    dyz    dz2    dxz  x2-y2    tot
    1  0.000  0.040  0.022  0.121  0.005  0.025  0.004  0.008  0.018  0.243
    2  0.000  0.040  0.022  0.121  0.005  0.025  0.004  0.008  0.018  0.243
tot    0.000  0.079  0.045  0.242  0.009  0.050  0.008  0.016  0.035  0.485
 
band    17 # energy    8.67096267 # occ.  0.00000000
 
ion      s     py     pz     px    dxy    dyz    dz2    dxz  x2-y2    tot
    1  0.000  0.082  0.100  0.001  0.021  0.000  0.018  0.017  0.004  0.243
    2  0.000  0.082  0.100  0.001  0.021  0.000  0.018  0.017  0.004  0.243
tot    0.000  0.165  0.199  0.002  0.041  0.000  0.035  0.034  0.008  0.485
 
band    18 # energy   11.47159808 # occ.  0.00000000
 
ion      s     py     pz     px    dxy    dyz    dz2    dxz  x2-y2    tot
    1  0.068  0.069  0.069  0.069  0.008  0.008  0.000  0.008  0.000  0.299
    2  0.067  0.068  0.068  0.068  0.009  0.009  0.000  0.009  0.000  0.297
tot    0.136  0.136  0.136  0.136  0.017  0.017  0.000  0.017  0.000  0.596
 

 k-point     5 :    0.40000000 0.00000000 0.00000000     weight = 0.00800000

band     1 # energy  -23.71031903 # occ.  2.00000000
 
ion      s     py     pz     px    dxy    dyz    dz2    dxz  x2-y2    tot
    1  0.000  0.000  0.000  0.000  0.244  0.000  0.019  0.228  0.005  0.497
    2  0.000  0.000  0.000  0.000  0.244  0.000  0.019  0.228  0.005  0.497
tot    0.000  0.000  0.000  0.000  0.488  0.001  0.038  0.456  0.011  0.993
 
band     2 # energy  -23.71031590 # occ.  2.00000000
 
ion      s     py     pz     px    dxy    dyz    dz2    dxz  x2-y2    tot
    1  0.000  0.000  0.000  0.000  0.071  0.315  0.005  0.087  0.019  0.497
    2  0.000  0.000  0.000  0.000  0.071  0.315  0.005  0.087  0.019  0.497
tot    0.000  0.000  0.000  0.000  0.141  0.629  0.011  0.174  0.038  0.993
 
band     3 # energy  -23.67463351 # occ.  2.00000000
 
ion      s     py     pz     px    dxy    dyz    dz2    dxz  x2-y2    tot
    1  0.000  0.000  0.000  0.000  0.165  0.165  0.000  0.165  0.000  0.497
    2  0.000  0.000  0.000  0.000  0.165  0.165  0.000  0.165  0.000  0.497
tot    0.001  0.000  0.000  0.000  0.331  0.331  0.000  0.331  0.000  0.994
 
band     4 # energy  -23.61932906 # occ.  2.00000000
 
ion      s     py     pz     px    dxy    dyz    dz2    dxz  x2-y2    tot
    1  0.000  0.000  0.000  0.000  0.005  0.024  0.106  0.006  0.355  0.497
    2  0.000  0.000  0.000  0.000  0.005  0.024  0.106  0.006  0.355  0.497
tot    0.000  0.000  0.000  0.000  0.011  0.048  0.211  0.013  0.710  0.993
 
band     5 # energy  -23.61932795 # occ.  2.00000000
 
ion      s     py     pz     px    dxy    dyz    dz2    dxz  x2-y2    tot
    1  0.000  0.000  0.000  0.000  0.018  0.000  0.355  0.017  0.106  0.497
    2  0.000  0.000  0.000  0.000  0.018  0.000  0.355  0.017  0.106  0.497
tot    0.000  0.000  0.000  0.000  0.037  0.000  0.710  0.035  0.211  0.993
 
band     6 # energy  -23.49889768 # occ.  2.00000000
 
ion      s     py     pz     px    dxy    dyz    dz2    dxz  x2-y2    tot
    1  0.000  0.000  0.000  0.000  0.007  0.028  0.105  0.008  0.350  0.498
    2  0.000  0.000  0.000  0.000  0.007  0.028  0.105  0.008  0.350  0.498
tot    0.000  0.000  0.000  0.000  0.013  0.056  0.211  0.015  0.701  0.997
 
band     7 # energy  -23.49889693 # occ.  2.00000000
 
ion      s     py     pz     px    dxy    dyz    dz2    dxz  x2-y2    tot
    1  0.000  0.000  0.000  0.000  0.022  0.000  0.350  0.021  0.105  0.498
    2  0.000  0.000  0.000  0.000  0.022  0.000  0.350  0.021  0.105  0.498
tot    0.000  0.000  0.000  0.000  0.043  0.000  0.701  0.041  0.211  0.997
 
band     8 # energy  -23.48558371 # occ.  2.00000000
 
ion      s     py     pz     px    dxy    dyz    dz2    dxz  x2-y2    tot
    1  0.000  0.000  0.000  0.000  0.166  0.166  0.000  0.166  0.000  0.498
    2  0.000  0.000  0.000  0.000  0.166  0.166  0.000  0.166  0.000  0.498
tot    0.001  0.000  0.000  0.000  0.332  0.332  0.000  0.332  0.000  0.996
 
band     9 # energy  -23.43581298 # occ.  2.00000000
 
ion      s     py     pz     px    dxy    dyz    dz2    dxz  x2-y2    tot
    1  0.000  0.000  0.000  0.000  0.229  0.000  0.042  0.216  0.012  0.499
    2  0.000  0.000  0.000  0.000  0.229  0.000  0.042  0.216  0.012  0.499
tot    0.000  0.000  0.000  0.000  0.457  0.000  0.084  0.431  0.025  0.997
 
band    10 # energy  -23.43580916 # occ.  2.00000000
 
ion      s     py     pz     px    dxy    dyz    dz2    dxz  x2-y2    tot
    1  0.000  0.000  0.000  0.000  0.068  0.296  0.012  0.081  0.042  0.499
    2  0.000  0.000  0.000  0.000  0.068  0.296  0.012  0.081  0.042  0.499
tot    0.000  0.000  0.000  0.000  0.135  0.592  0.025  0.161  0.084  0.997
 
band    11 # energy   -7.64537610 # occ.  2.00000000
 